 Entering Gaussian System, Link 0=g09
 Input=Spiro_Meta_Ortho.com
 Output=Spiro_Meta_Ortho.log
 Initial command:
 /opt/g09/l1.exe /work/jarvist/2014-07_SPIRO/2015-03_extra_one/Gau-39403.inp -scrdir=/work/jarvist/2014-07_SPIRO/2015-03_extra_one/
 Default is to use a total of   8 processors:
                                8 via shared-memory
                                1 via Linda
 Entering Link 1 = /opt/g09/l1.exe PID=     39405.
  
 Copyright (c) 1988,1990,1992,1993,1995,1998,2003,2009, Gaussian, Inc.
                  All Rights Reserved.
  
 This is part of the Gaussian(R) 09 program.  It is based on
 the Gaussian(R) 03 system (copyright 2003, Gaussian, Inc.),
 the Gaussian(R) 98 system (copyright 1998, Gaussian, Inc.),
 the Gaussian(R) 94 system (copyright 1995, Gaussian, Inc.),
 the Gaussian 92(TM) system (copyright 1992, Gaussian, Inc.),
 the Gaussian 90(TM) system (copyright 1990, Gaussian, Inc.),
 the Gaussian 88(TM) system (copyright 1988, Gaussian, Inc.),
 the Gaussian 86(TM) system (copyright 1986, Carnegie Mellon
 University), and the Gaussian 82(TM) system (copyright 1983,
 Carnegie Mellon University). Gaussian is a federally registered
 trademark of Gaussian, Inc.
  
 This software contains proprietary and confidential information,
 including trade secrets, belonging to Gaussian, Inc.
  
 This software is provided under written license and may be
 used, copied, transmitted, or stored only in accord with that
 written license.
  
 The following legend is applicable only to US Government
 contracts under FAR:
  
                    RESTRICTED RIGHTS LEGEND
  
 Use, reproduction and disclosure by the US Government is
 subject to restrictions as set forth in subparagraphs (a)
 and (c) of the Commercial Computer Software - Restricted
 Rights clause in FAR 52.227-19.
  
 Gaussian, Inc.
 340 Quinnipiac St., Bldg. 40, Wallingford CT 06492
  
  
 ---------------------------------------------------------------
 Warning -- This program may not be used in any manner that
 competes with the business of Gaussian, Inc. or will provide
 assistance to any competitor of Gaussian, Inc.  The licensee
 of this program is prohibited from giving any competitor of
 Gaussian, Inc. access to this program.  By using this program,
 the user acknowledges that Gaussian, Inc. is engaged in the
 business of creating and licensing software in the field of
 computational chemistry and represents and warrants to the
 licensee that it is not a competitor of Gaussian, Inc. and that
 it will not use this program in any manner prohibited above.
 ---------------------------------------------------------------
  

 Cite this work as:
 Gaussian 09, Revision A.02,
 M. J. Frisch, G. W. Trucks, H. B. Schlegel, G. E. Scuseria, 
 M. A. Robb, J. R. Cheeseman, G. Scalmani, V. Barone, B. Mennucci, 
 G. A. Petersson, H. Nakatsuji, M. Caricato, X. Li, H. P. Hratchian, 
 A. F. Izmaylov, J. Bloino, G. Zheng, J. L. Sonnenberg, M. Hada, 
 M. Ehara, K. Toyota, R. Fukuda, J. Hasegawa, M. Ishida, T. Nakajima, 
 Y. Honda, O. Kitao, H. Nakai, T. Vreven, J. A. Montgomery, Jr., 
 J. E. Peralta, F. Ogliaro, M. Bearpark, J. J. Heyd, E. Brothers, 
 K. N. Kudin, V. N. Staroverov, R. Kobayashi, J. Normand, 
 K. Raghavachari, A. Rendell, J. C. Burant, S. S. Iyengar, J. Tomasi, 
 M. Cossi, N. Rega, J. M. Millam, M. Klene, J. E. Knox, J. B. Cross, 
 V. Bakken, C. Adamo, J. Jaramillo, R. Gomperts, R. E. Stratmann, 
 O. Yazyev, A. J. Austin, R. Cammi, C. Pomelli, J. W. Ochterski, 
 R. L. Martin, K. Morokuma, V. G. Zakrzewski, G. A. Voth, 
 P. Salvador, J. J. Dannenberg, S. Dapprich, A. D. Daniels, 
 O. Farkas, J. B. Foresman, J. V. Ortiz, J. Cioslowski, 
 and D. J. Fox, Gaussian, Inc., Wallingford CT, 2009.
 
 ******************************************
 Gaussian 09:  EM64L-G09RevA.02 11-Jun-2009
                27-Mar-2015 
 ******************************************
 %mem=20GB
 %nprocshared=24
 Will use up to   24 processors via shared memory.
 Default route:  MaxDisk=100GB
 -------------------
 #p opt b3lyp/6-31g*
 -------------------
 1/14=-1,18=20,19=15,26=3,38=1/1,3;
 2/9=110,12=2,17=6,18=5,40=1/2;
 3/5=1,6=6,7=1,11=2,16=1,25=1,30=1,71=1,74=-5/1,2,3;
 4//1;
 5/5=2,38=5/2;
 6/7=2,8=2,9=2,10=2,28=1/1;
 7//1,2,3,16;
 1/14=-1,18=20,19=15/3(2);
 2/9=110/2;
 99//99;
 2/9=110/2;
 3/5=1,6=6,7=1,11=2,16=1,25=1,30=1,71=1,74=-5/1,2,3;
 4/5=5,16=3/1;
 5/5=2,38=5/2;
 7//1,2,3,16;
 1/14=-1,18=20,19=15/3(-5);
 2/9=110/2;
 6/7=2,8=2,9=2,10=2,19=2,28=1/1;
 99/9=1/99;
 Leave Link    1 at Fri Mar 27 22:12:02 2015, MaxMem= 2684354560 cpu:       2.2
 (Enter /opt/g09/l101.exe)
 --------------------------------
 Spiro Meta-Ortho; B3lyp Geom opt
 --------------------------------
 Symbolic Z-matrix:
 Charge =  0 Multiplicity = 1
 C                    -0.06898   0.01986   0.05569 
 C                    -1.07102   0.57361   1.05178 
 C                    -0.59658   0.36529   2.38297 
 C                     0.69627  -0.30495   2.32139 
 C                     1.02468  -0.53606   0.95421 
 C                    -0.66811  -1.03939  -0.85279 
 C                    -0.46074  -0.68611  -2.21961 
 C                     0.2642    0.57897  -2.26804 
 C                     0.482     1.03228  -0.93184 
 C                    -1.33032  -2.19738  -0.50772 
 C                    -1.81155  -3.04591  -1.54352 
 C                    -1.59121  -2.69411  -2.88866 
 C                    -0.92257  -1.51351  -3.22738 
 C                     1.55902  -0.72458   3.31933 
 C                     2.74096  -1.38243   2.97193 
 C                     3.07199  -1.62494   1.62089 
 C                     2.19099  -1.178     0.59811 
 C                    -2.30409   1.14427   0.8183 
 C                    -3.11211   1.50805   1.93178 
 C                    -2.62197   1.32259   3.23883 
 C                    -1.36663   0.75056   3.46501 
 C                     0.74843   1.30873  -3.3392 
 C                     1.46924   2.48331  -3.09573 
 C                     1.69131   2.93663  -1.78336 
 C                     1.16582   2.20492  -0.6862 
 N                    -2.56593  -4.19645  -1.19054 
 N                     4.22877  -2.37374   1.30201 
 N                    -4.43101   1.98445   1.71043 
 N                     2.45363   4.13735  -1.59805 
 C                     3.83355   3.96634  -1.29049 
 C                    -4.65133   3.14938   0.9445 
 C                     1.76147   5.2311   -1.00945 
 C                    -5.42949   1.59508   2.64588 
 C                    -2.01363  -5.1773   -0.33766 
 C                    -3.61249  -4.58698  -2.07627 
 C                     5.45217  -2.1183    1.96874 
 C                     4.29855  -2.98388   0.01468 
 C                     6.4434   -3.12451   2.00549 
 C                     7.63388  -2.90985   2.69419 
 C                     7.88031  -1.71272   3.35452 
 C                     6.89981  -0.70573   3.30938 
 C                     5.69602  -0.89212   2.62684 
 C                    -2.84411  -6.20692   0.17455 
 C                    -2.33581  -7.13401   1.0728 
 C                    -1.00764  -7.08436   1.49435 
 C                    -0.18342  -6.07748   0.98215 
 C                    -0.66578  -5.12785   0.06823 
 C                    -3.43385  -5.49304  -3.16148 
 C                    -4.51684  -5.86013  -3.96984 
 C                    -5.7777   -5.31969  -3.73249 
 C                    -5.96569  -4.41326  -2.69279 
 C                    -4.89931  -4.05026  -1.87411 
 C                     4.94747  -2.38121  -1.10324 
 C                     5.02928  -3.05555  -2.32734 
 C                     4.44826  -4.31306  -2.46957 
 C                     3.78369  -4.90199  -1.39831 
 C                     3.70822  -4.24901  -0.17 
 C                    -3.59201   4.00758   0.57965 
 C                    -3.84009   5.1342   -0.20045 
 C                    -5.12208   5.44178  -0.63708 
 C                    -6.17882   4.58536  -0.27922 
 C                    -5.96249   3.45054   0.50292 
 C                    -5.93164   0.26028   2.67876 
 C                    -6.91049  -0.10478   3.61219 
 C                    -7.4188    0.83729   4.50165 
 C                    -6.95478   2.14947   4.46943 
 C                    -5.97208   2.52286   3.55755 
 C                     0.51386   5.61242  -1.55528 
 C                    -0.14329   6.73149  -1.04253 
 C                     0.39884   7.47969   0.01761 
 C                     1.62011   7.08821   0.55075 
 C                     2.3031    5.97984   0.05455 
 C                     4.30334   2.88389  -0.51586 
 C                     5.66223   2.70478  -0.27807 
 C                     6.5964    3.60066  -0.79553 
 C                     6.16695   4.67456  -1.56807 
 C                     4.80148   4.85973  -1.82187 
 H                     1.30929   2.56382   0.34496 
 H                    -2.67255   1.29938  -0.20737 
 H                    -3.23904   1.61249   4.10408 
 H                    -1.00618   0.60435   4.49345 
 H                     1.31872  -0.55258   4.37867 
 H                     3.4186   -1.7208    3.77174 
 H                     0.58044   0.97048  -4.37188 
 H                     1.8701    3.05199  -3.94996 
 H                    -0.76544  -1.2561   -4.2848 
 H                    -1.94624  -3.35923  -3.69294 
 H                     2.43698  -1.3472   -0.46193 
 H                    -1.48524  -2.46372   0.54944 
 H                    -3.89624  -6.27324  -0.13974 
 H                    -2.99526  -7.92458   1.46288 
 H                     8.39384  -3.70619   2.71564 
 H                     6.27927  -4.08028   1.48595 
 O                     1.15677  -5.93556   1.29766 
 H                     3.27853   5.70695   0.48443 
 H                     2.05942   7.66377   1.38004 
 O                    -1.36746   7.1808   -1.5066 
 H                    -7.28926  -1.13636   3.64227 
 O                    -5.42954  -0.61818   1.74013 
 H                    -7.35875   2.89607   5.16868 
 H                    -5.61558   3.56606   3.54282 
 O                    -7.41828   4.96749  -0.7594 
 H                    -5.3245    6.33257  -1.24579 
 H                    -3.00146   5.80021  -0.46956 
 H                    -2.5636    3.79287   0.90763 
 H                     3.58751   2.1581   -0.09556 
 H                     5.99523   1.84832   0.32976 
 H                     7.66869   3.46001  -0.59617 
 H                     6.88635   5.39505  -1.9851 
 O                     4.43897   6.00935  -2.51256 
 H                     5.54409  -2.59822  -3.18382 
 O                     5.46658  -1.11871  -0.89851 
 H                     4.51243  -4.83521  -3.4358 
 H                     3.30856  -5.88723  -1.51503 
 H                     3.16249  -4.72915   0.66244 
 H                    -5.06505  -3.33037  -1.055 
 H                    -6.95995  -3.97879  -2.5125 
 H                    -6.6235   -5.60875  -4.37412 
 H                    -4.37693  -6.56808  -4.79898 
 O                    -2.14678  -5.94257  -3.38078 
 H                     8.816    -1.53819   3.90155 
 H                    -0.62876  -7.82526   2.20936 
 H                    -8.19032   0.54073   5.22755 
 H                    -0.14521   8.3521    0.40292 
 C                     4.15833   5.78377  -3.89336 
 C                    -5.66859  -2.00108   1.97815 
 C                    -2.01041  -7.07809  -4.22877 
 C                     6.12699  -0.51326  -2.0041 
 H                     5.08131   5.43747  -4.41952 
 H                     3.84299   6.79067  -4.26512 
 H                     3.33721   5.03911  -4.02196 
 H                    -5.04092  -2.50739   1.20003 
 H                    -6.74929  -2.24105   1.8258 
 H                    -5.34138  -2.29719   3.00363 
 H                    -0.93079  -7.35405  -4.11731 
 H                    -2.23686  -6.80069  -5.28725 
 H                    -2.66927  -7.91397  -3.89169 
 H                     6.41996   0.49276  -1.60365 
 H                     5.43061  -0.40077  -2.87022 
 H                     7.02887  -1.10337  -2.29647 
 H                     4.9425   -0.09176   2.59061 
 O                     7.23181   0.45405   3.98547 
 C                     6.31467   1.53544   3.8722 
 H                     5.33522   1.27165   4.34024 
 H                     6.17169   1.82479   2.80206 
 H                     6.81339   2.36055   4.44131 
 C                     1.64456  -6.76615   2.34434 
 H                     2.69925  -6.41584   2.48328 
 H                     1.62336  -7.83938   2.03448 
 H                     1.05317  -6.6177    3.27999 
 H                     0.02435  -4.3605   -0.31406 
 H                     0.07412   5.02891  -2.37703 
 C                    -1.79999   6.64391  -2.75187 
 H                    -1.01932   6.77976  -3.53853 
 H                    -2.71425   7.24423  -2.99117 
 H                    -2.06079   5.5627   -2.64007 
 C                    -8.50771   4.10673  -0.45221 
 H                    -6.79628   2.78858   0.77719 
 H                    -9.37845   4.59933  -0.9548 
 H                    -8.6697    4.05386   0.65189 
 H                    -8.33671   3.08555  -0.87157 
 
 NAtoms=    161 NQM=    161 NQMF=      0 NMic=      0 NMicF=      0 NTot=    161.
                    Isotopes and Nuclear Properties:
 (Nuclear quadrupole moments (NQMom) in fm**2, nuclear magnetic moments (NMagM)
  in nuclear magnetons)

  Atom         1           2           3           4           5           6           7           8           9          10
 IAtWgt=          12          12          12          12          12          12          12          12          12          12
 AtmWgt=  12.0000000  12.0000000  12.0000000  12.0000000  12.0000000  12.0000000  12.0000000  12.0000000  12.0000000  12.0000000
 NucSpn=           0           0           0           0           0           0           0           0           0           0
 AtZEff=   0.0000000   0.0000000   0.0000000   0.0000000   0.0000000   0.0000000   0.0000000   0.0000000   0.0000000   0.0000000
 NQMom=    0.0000000   0.0000000   0.0000000   0.0000000   0.0000000   0.0000000   0.0000000   0.0000000   0.0000000   0.0000000
 NMagM=    0.0000000   0.0000000   0.0000000   0.0000000   0.0000000   0.0000000   0.0000000   0.0000000   0.0000000   0.0000000

  Atom        11          12          13          14          15          16          17          18          19          20
 IAtWgt=          12          12          12          12          12          12          12          12          12          12
 AtmWgt=  12.0000000  12.0000000  12.0000000  12.0000000  12.0000000  12.0000000  12.0000000  12.0000000  12.0000000  12.0000000
 NucSpn=           0           0           0           0           0           0           0           0           0           0
 AtZEff=   0.0000000   0.0000000   0.0000000   0.0000000   0.0000000   0.0000000   0.0000000   0.0000000   0.0000000   0.0000000
 NQMom=    0.0000000   0.0000000   0.0000000   0.0000000   0.0000000   0.0000000   0.0000000   0.0000000   0.0000000   0.0000000
 NMagM=    0.0000000   0.0000000   0.0000000   0.0000000   0.0000000   0.0000000   0.0000000   0.0000000   0.0000000   0.0000000

  Atom        21          22          23          24          25          26          27          28          29          30
 IAtWgt=          12          12          12          12          12          14          14          14          14          12
 AtmWgt=  12.0000000  12.0000000  12.0000000  12.0000000  12.0000000  14.0030740  14.0030740  14.0030740  14.0030740  12.0000000
 NucSpn=           0           0           0           0           0           2           2           2           2           0
 AtZEff=   0.0000000   0.0000000   0.0000000   0.0000000   0.0000000   0.0000000   0.0000000   0.0000000   0.0000000   0.0000000
 NQMom=    0.0000000   0.0000000   0.0000000   0.0000000   0.0000000   2.0440000   2.0440000   2.0440000   2.0440000   0.0000000
 NMagM=    0.0000000   0.0000000   0.0000000   0.0000000   0.0000000   0.4037610   0.4037610   0.4037610   0.4037610   0.0000000

  Atom        31          32          33          34          35          36          37          38          39          40
 IAtWgt=          12          12          12          12          12          12          12          12          12          12
 AtmWgt=  12.0000000  12.0000000  12.0000000  12.0000000  12.0000000  12.0000000  12.0000000  12.0000000  12.0000000  12.0000000
 NucSpn=           0           0           0           0           0           0           0           0           0           0
 AtZEff=   0.0000000   0.0000000   0.0000000   0.0000000   0.0000000   0.0000000   0.0000000   0.0000000   0.0000000   0.0000000
 NQMom=    0.0000000   0.0000000   0.0000000   0.0000000   0.0000000   0.0000000   0.0000000   0.0000000   0.0000000   0.0000000
 NMagM=    0.0000000   0.0000000   0.0000000   0.0000000   0.0000000   0.0000000   0.0000000   0.0000000   0.0000000   0.0000000

  Atom        41          42          43          44          45          46          47          48          49          50
 IAtWgt=          12          12          12          12          12          12          12          12          12          12
 AtmWgt=  12.0000000  12.0000000  12.0000000  12.0000000  12.0000000  12.0000000  12.0000000  12.0000000  12.0000000  12.0000000
 NucSpn=           0           0           0           0           0           0           0           0           0           0
 AtZEff=   0.0000000   0.0000000   0.0000000   0.0000000   0.0000000   0.0000000   0.0000000   0.0000000   0.0000000   0.0000000
 NQMom=    0.0000000   0.0000000   0.0000000   0.0000000   0.0000000   0.0000000   0.0000000   0.0000000   0.0000000   0.0000000
 NMagM=    0.0000000   0.0000000   0.0000000   0.0000000   0.0000000   0.0000000   0.0000000   0.0000000   0.0000000   0.0000000

  Atom        51          52          53          54          55          56          57          58          59          60
 IAtWgt=          12          12          12          12          12          12          12          12          12          12
 AtmWgt=  12.0000000  12.0000000  12.0000000  12.0000000  12.0000000  12.0000000  12.0000000  12.0000000  12.0000000  12.0000000
 NucSpn=           0           0           0           0           0           0           0           0           0           0
 AtZEff=   0.0000000   0.0000000   0.0000000   0.0000000   0.0000000   0.0000000   0.0000000   0.0000000   0.0000000   0.0000000
 NQMom=    0.0000000   0.0000000   0.0000000   0.0000000   0.0000000   0.0000000   0.0000000   0.0000000   0.0000000   0.0000000
 NMagM=    0.0000000   0.0000000   0.0000000   0.0000000   0.0000000   0.0000000   0.0000000   0.0000000   0.0000000   0.0000000

  Atom        61          62          63          64          65          66          67          68          69          70
 IAtWgt=          12          12          12          12          12          12          12          12          12          12
 AtmWgt=  12.0000000  12.0000000  12.0000000  12.0000000  12.0000000  12.0000000  12.0000000  12.0000000  12.0000000  12.0000000
 NucSpn=           0           0           0           0           0           0           0           0           0           0
 AtZEff=   0.0000000   0.0000000   0.0000000   0.0000000   0.0000000   0.0000000   0.0000000   0.0000000   0.0000000   0.0000000
 NQMom=    0.0000000   0.0000000   0.0000000   0.0000000   0.0000000   0.0000000   0.0000000   0.0000000   0.0000000   0.0000000
 NMagM=    0.0000000   0.0000000   0.0000000   0.0000000   0.0000000   0.0000000   0.0000000   0.0000000   0.0000000   0.0000000

  Atom        71          72          73          74          75          76          77          78          79          80
 IAtWgt=          12          12          12          12          12          12          12           1           1           1
 AtmWgt=  12.0000000  12.0000000  12.0000000  12.0000000  12.0000000  12.0000000  12.0000000   1.0078250   1.0078250   1.0078250
 NucSpn=           0           0           0           0           0           0           0           1           1           1
 AtZEff=   0.0000000   0.0000000   0.0000000   0.0000000   0.0000000   0.0000000   0.0000000   0.0000000   0.0000000   0.0000000
 NQMom=    0.0000000   0.0000000   0.0000000   0.0000000   0.0000000   0.0000000   0.0000000   0.0000000   0.0000000   0.0000000
 NMagM=    0.0000000   0.0000000   0.0000000   0.0000000   0.0000000   0.0000000   0.0000000   2.7928460   2.7928460   2.7928460

  Atom        81          82          83          84          85          86          87          88          89          90
 IAtWgt=           1           1           1           1           1           1           1           1           1           1
 AtmWgt=   1.0078250   1.0078250   1.0078250   1.0078250   1.0078250   1.0078250   1.0078250   1.0078250   1.0078250   1.0078250
 NucSpn=           1           1           1           1           1           1           1           1           1           1
 AtZEff=   0.0000000   0.0000000   0.0000000   0.0000000   0.0000000   0.0000000   0.0000000   0.0000000   0.0000000   0.0000000
 NQMom=    0.0000000   0.0000000   0.0000000   0.0000000   0.0000000   0.0000000   0.0000000   0.0000000   0.0000000   0.0000000
 NMagM=    2.7928460   2.7928460   2.7928460   2.7928460   2.7928460   2.7928460   2.7928460   2.7928460   2.7928460   2.7928460

  Atom        91          92          93          94          95          96          97          98          99         100
 IAtWgt=           1           1           1          16           1           1          16           1          16           1
 AtmWgt=   1.0078250   1.0078250   1.0078250  15.9949146   1.0078250   1.0078250  15.9949146   1.0078250  15.9949146   1.0078250
 NucSpn=           1           1           1           0           1           1           0           1           0           1
 AtZEff=   0.0000000   0.0000000   0.0000000   0.0000000   0.0000000   0.0000000   0.0000000   0.0000000   0.0000000   0.0000000
 NQMom=    0.0000000   0.0000000   0.0000000   0.0000000   0.0000000   0.0000000   0.0000000   0.0000000   0.0000000   0.0000000
 NMagM=    2.7928460   2.7928460   2.7928460   0.0000000   2.7928460   2.7928460   0.0000000   2.7928460   0.0000000   2.7928460

  Atom       101         102         103         104         105         106         107         108         109         110
 IAtWgt=           1          16           1           1           1           1           1           1           1          16
 AtmWgt=   1.0078250  15.9949146   1.0078250   1.0078250   1.0078250   1.0078250   1.0078250   1.0078250   1.0078250  15.9949146
 NucSpn=           1           0           1           1           1           1           1           1           1           0
 AtZEff=   0.0000000   0.0000000   0.0000000   0.0000000   0.0000000   0.0000000   0.0000000   0.0000000   0.0000000   0.0000000
 NQMom=    0.0000000   0.0000000   0.0000000   0.0000000   0.0000000   0.0000000   0.0000000   0.0000000   0.0000000   0.0000000
 NMagM=    2.7928460   0.0000000   2.7928460   2.7928460   2.7928460   2.7928460   2.7928460   2.7928460   2.7928460   0.0000000

  Atom       111         112         113         114         115         116         117         118         119         120
 IAtWgt=           1          16           1           1           1           1           1           1           1          16
 AtmWgt=   1.0078250  15.9949146   1.0078250   1.0078250   1.0078250   1.0078250   1.0078250   1.0078250   1.0078250  15.9949146
 NucSpn=           1           0           1           1           1           1           1           1           1           0
 AtZEff=   0.0000000   0.0000000   0.0000000   0.0000000   0.0000000   0.0000000   0.0000000   0.0000000   0.0000000   0.0000000
 NQMom=    0.0000000   0.0000000   0.0000000   0.0000000   0.0000000   0.0000000   0.0000000   0.0000000   0.0000000   0.0000000
 NMagM=    2.7928460   0.0000000   2.7928460   2.7928460   2.7928460   2.7928460   2.7928460   2.7928460   2.7928460   0.0000000

  Atom       121         122         123         124         125         126         127         128         129         130
 IAtWgt=           1           1           1           1          12          12          12          12           1           1
 AtmWgt=   1.0078250   1.0078250   1.0078250   1.0078250  12.0000000  12.0000000  12.0000000  12.0000000   1.0078250   1.0078250
 NucSpn=           1           1           1           1           0           0           0           0           1           1
 AtZEff=   0.0000000   0.0000000   0.0000000   0.0000000   0.0000000   0.0000000   0.0000000   0.0000000   0.0000000   0.0000000
 NQMom=    0.0000000   0.0000000   0.0000000   0.0000000   0.0000000   0.0000000   0.0000000   0.0000000   0.0000000   0.0000000
 NMagM=    2.7928460   2.7928460   2.7928460   2.7928460   0.0000000   0.0000000   0.0000000   0.0000000   2.7928460   2.7928460

  Atom       131         132         133         134         135         136         137         138         139         140
 IAtWgt=           1           1           1           1           1           1           1           1           1           1
 AtmWgt=   1.0078250   1.0078250   1.0078250   1.0078250   1.0078250   1.0078250   1.0078250   1.0078250   1.0078250   1.0078250
 NucSpn=           1           1           1           1           1           1           1           1           1           1
 AtZEff=   0.0000000   0.0000000   0.0000000   0.0000000   0.0000000   0.0000000   0.0000000   0.0000000   0.0000000   0.0000000
 NQMom=    0.0000000   0.0000000   0.0000000   0.0000000   0.0000000   0.0000000   0.0000000   0.0000000   0.0000000   0.0000000
 NMagM=    2.7928460   2.7928460   2.7928460   2.7928460   2.7928460   2.7928460   2.7928460   2.7928460   2.7928460   2.7928460

  Atom       141         142         143         144         145         146         147         148         149         150
 IAtWgt=           1          16          12           1           1           1          12           1           1           1
 AtmWgt=   1.0078250  15.9949146  12.0000000   1.0078250   1.0078250   1.0078250  12.0000000   1.0078250   1.0078250   1.0078250
 NucSpn=           1           0           0           1           1           1           0           1           1           1
 AtZEff=   0.0000000   0.0000000   0.0000000   0.0000000   0.0000000   0.0000000   0.0000000   0.0000000   0.0000000   0.0000000
 NQMom=    0.0000000   0.0000000   0.0000000   0.0000000   0.0000000   0.0000000   0.0000000   0.0000000   0.0000000   0.0000000
 NMagM=    2.7928460   0.0000000   0.0000000   2.7928460   2.7928460   2.7928460   0.0000000   2.7928460   2.7928460   2.7928460

  Atom       151         152         153         154         155         156         157         158         159         160
 IAtWgt=           1           1          12           1           1           1          12           1           1           1
 AtmWgt=   1.0078250   1.0078250  12.0000000   1.0078250   1.0078250   1.0078250  12.0000000   1.0078250   1.0078250   1.0078250
 NucSpn=           1           1           0           1           1           1           0           1           1           1
 AtZEff=   0.0000000   0.0000000   0.0000000   0.0000000   0.0000000   0.0000000   0.0000000   0.0000000   0.0000000   0.0000000
 NQMom=    0.0000000   0.0000000   0.0000000   0.0000000   0.0000000   0.0000000   0.0000000   0.0000000   0.0000000   0.0000000
 NMagM=    2.7928460   2.7928460   0.0000000   2.7928460   2.7928460   2.7928460   0.0000000   2.7928460   2.7928460   2.7928460

  Atom       161
 IAtWgt=           1
 AtmWgt=   1.0078250
 NucSpn=           1
 AtZEff=   0.0000000
 NQMom=    0.0000000
 NMagM=    2.7928460
 Leave Link  101 at Fri Mar 27 22:12:02 2015, MaxMem= 2684354560 cpu:       6.6
 (Enter /opt/g09/l103.exe)

 GradGradGradGradGradGradGradGradGradGradGradGradGradGradGradGradGradGrad
 Berny optimization.
 Initialization pass.
                           ----------------------------
                           !    Initial Parameters    !
                           ! (Angstroms and Degrees)  !
 --------------------------                            --------------------------
 ! Name  Definition              Value          Derivative Info.                !
 --------------------------------------------------------------------------------
 ! R1    R(1,2)                  1.5175         estimate D2E/DX2                !
 ! R2    R(1,5)                  1.5207         estimate D2E/DX2                !
 ! R3    R(1,6)                  1.5186         estimate D2E/DX2                !
 ! R4    R(1,9)                  1.5178         estimate D2E/DX2                !
 ! R5    R(2,3)                  1.4285         estimate D2E/DX2                !
 ! R6    R(2,18)                 1.3786         estimate D2E/DX2                !
 ! R7    R(3,4)                  1.4576         estimate D2E/DX2                !
 ! R8    R(3,21)                 1.3828         estimate D2E/DX2                !
 ! R9    R(4,5)                  1.4249         estimate D2E/DX2                !
 ! R10   R(4,14)                 1.3843         estimate D2E/DX2                !
 ! R11   R(5,17)                 1.3781         estimate D2E/DX2                !
 ! R12   R(6,7)                  1.4269         estimate D2E/DX2                !
 ! R13   R(6,10)                 1.3779         estimate D2E/DX2                !
 ! R14   R(7,8)                  1.4589         estimate D2E/DX2                !
 ! R15   R(7,13)                 1.3833         estimate D2E/DX2                !
 ! R16   R(8,9)                  1.4277         estimate D2E/DX2                !
 ! R17   R(8,22)                 1.3836         estimate D2E/DX2                !
 ! R18   R(9,25)                 1.3795         estimate D2E/DX2                !
 ! R19   R(10,11)                1.4228         estimate D2E/DX2                !
 ! R20   R(10,89)                1.1011         estimate D2E/DX2                !
 ! R21   R(11,12)                1.4077         estimate D2E/DX2                !
 ! R22   R(11,26)                1.4204         estimate D2E/DX2                !
 ! R23   R(12,13)                1.3984         estimate D2E/DX2                !
 ! R24   R(12,87)                1.1024         estimate D2E/DX2                !
 ! R25   R(13,86)                1.0996         estimate D2E/DX2                !
 ! R26   R(14,15)                1.3966         estimate D2E/DX2                !
 ! R27   R(14,82)                1.0998         estimate D2E/DX2                !
 ! R28   R(15,16)                1.412          estimate D2E/DX2                !
 ! R29   R(15,83)                1.1015         estimate D2E/DX2                !
 ! R30   R(16,17)                1.422          estimate D2E/DX2                !
 ! R31   R(16,27)                1.4144         estimate D2E/DX2                !
 ! R32   R(17,88)                1.1013         estimate D2E/DX2                !
 ! R33   R(18,19)                1.4231         estimate D2E/DX2                !
 ! R34   R(18,79)                1.1008         estimate D2E/DX2                !
 ! R35   R(19,20)                1.4082         estimate D2E/DX2                !
 ! R36   R(19,28)                1.4197         estimate D2E/DX2                !
 ! R37   R(20,21)                1.3979         estimate D2E/DX2                !
 ! R38   R(20,80)                1.1016         estimate D2E/DX2                !
 ! R39   R(21,81)                1.0995         estimate D2E/DX2                !
 ! R40   R(22,23)                1.3995         estimate D2E/DX2                !
 ! R41   R(22,84)                1.0996         estimate D2E/DX2                !
 ! R42   R(23,24)                1.4061         estimate D2E/DX2                !
 ! R43   R(23,85)                1.1017         estimate D2E/DX2                !
 ! R44   R(24,25)                1.4196         estimate D2E/DX2                !
 ! R45   R(24,29)                1.4343         estimate D2E/DX2                !
 ! R46   R(25,78)                1.1012         estimate D2E/DX2                !
 ! R47   R(26,34)                1.4123         estimate D2E/DX2                !
 ! R48   R(26,35)                1.4256         estimate D2E/DX2                !
 ! R49   R(27,36)                1.4165         estimate D2E/DX2                !
 ! R50   R(27,37)                1.4263         estimate D2E/DX2                !
 ! R51   R(28,31)                1.4115         estimate D2E/DX2                !
 ! R52   R(28,33)                1.4225         estimate D2E/DX2                !
 ! R53   R(29,30)                1.4241         estimate D2E/DX2                !
 ! R54   R(29,32)                1.4219         estimate D2E/DX2                !
 ! R55   R(30,73)                1.4115         estimate D2E/DX2                !
 ! R56   R(30,77)                1.4204         estimate D2E/DX2                !
 ! R57   R(31,58)                1.4113         estimate D2E/DX2                !
 ! R58   R(31,62)                1.4159         estimate D2E/DX2                !
 ! R59   R(32,68)                1.4142         estimate D2E/DX2                !
 ! R60   R(32,72)                1.4093         estimate D2E/DX2                !
 ! R61   R(33,63)                1.4265         estimate D2E/DX2                !
 ! R62   R(33,67)                1.4094         estimate D2E/DX2                !
 ! R63   R(34,43)                1.4185         estimate D2E/DX2                !
 ! R64   R(34,47)                1.4085         estimate D2E/DX2                !
 ! R65   R(35,48)                1.425          estimate D2E/DX2                !
 ! R66   R(35,52)                1.4088         estimate D2E/DX2                !
 ! R67   R(36,38)                1.4129         estimate D2E/DX2                !
 ! R68   R(36,42)                1.4128         estimate D2E/DX2                !
 ! R69   R(37,53)                1.4262         estimate D2E/DX2                !
 ! R70   R(37,57)                1.4082         estimate D2E/DX2                !
 ! R71   R(38,39)                1.392          estimate D2E/DX2                !
 ! R72   R(38,93)                1.1002         estimate D2E/DX2                !
 ! R73   R(39,40)                1.3892         estimate D2E/DX2                !
 ! R74   R(39,92)                1.101          estimate D2E/DX2                !
 ! R75   R(40,41)                1.4062         estimate D2E/DX2                !
 ! R76   R(40,121)               1.0978         estimate D2E/DX2                !
 ! R77   R(41,42)                1.3963         estimate D2E/DX2                !
 ! R78   R(41,142)               1.3829         estimate D2E/DX2                !
 ! R79   R(42,141)               1.0998         estimate D2E/DX2                !
 ! R80   R(43,44)                1.3873         estimate D2E/DX2                !
 ! R81   R(43,90)                1.1001         estimate D2E/DX2                !
 ! R82   R(44,45)                1.3943         estimate D2E/DX2                !
 ! R83   R(44,91)                1.1009         estimate D2E/DX2                !
 ! R84   R(45,46)                1.3984         estimate D2E/DX2                !
 ! R85   R(45,122)               1.0971         estimate D2E/DX2                !
 ! R86   R(46,47)                1.4035         estimate D2E/DX2                !
 ! R87   R(46,94)                1.3841         estimate D2E/DX2                !
 ! R88   R(47,151)               1.1006         estimate D2E/DX2                !
 ! R89   R(48,49)                1.4004         estimate D2E/DX2                !
 ! R90   R(48,120)               1.3808         estimate D2E/DX2                !
 ! R91   R(49,50)                1.3922         estimate D2E/DX2                !
 ! R92   R(49,119)               1.0992         estimate D2E/DX2                !
 ! R93   R(50,51)                1.3921         estimate D2E/DX2                !
 ! R94   R(50,118)               1.1003         estimate D2E/DX2                !
 ! R95   R(51,52)                1.3925         estimate D2E/DX2                !
 ! R96   R(51,117)               1.0999         estimate D2E/DX2                !
 ! R97   R(52,116)               1.103          estimate D2E/DX2                !
 ! R98   R(53,54)                1.4            estimate D2E/DX2                !
 ! R99   R(53,112)               1.3803         estimate D2E/DX2                !
 ! R100  R(54,55)                1.3925         estimate D2E/DX2                !
 ! R101  R(54,111)               1.099          estimate D2E/DX2                !
 ! R102  R(55,56)                1.3914         estimate D2E/DX2                !
 ! R103  R(55,113)               1.1002         estimate D2E/DX2                !
 ! R104  R(56,57)                1.3931         estimate D2E/DX2                !
 ! R105  R(56,114)               1.1            estimate D2E/DX2                !
 ! R106  R(57,115)               1.1051         estimate D2E/DX2                !
 ! R107  R(58,59)                1.3926         estimate D2E/DX2                !
 ! R108  R(58,105)               1.1006         estimate D2E/DX2                !
 ! R109  R(59,60)                1.3888         estimate D2E/DX2                !
 ! R110  R(59,104)               1.1042         estimate D2E/DX2                !
 ! R111  R(60,61)                1.4065         estimate D2E/DX2                !
 ! R112  R(60,103)               1.0977         estimate D2E/DX2                !
 ! R113  R(61,62)                1.3951         estimate D2E/DX2                !
 ! R114  R(61,102)               1.3831         estimate D2E/DX2                !
 ! R115  R(62,158)               1.0994         estimate D2E/DX2                !
 ! R116  R(63,64)                1.401          estimate D2E/DX2                !
 ! R117  R(63,99)                1.3801         estimate D2E/DX2                !
 ! R118  R(64,65)                1.3918         estimate D2E/DX2                !
 ! R119  R(64,98)                1.0993         estimate D2E/DX2                !
 ! R120  R(65,66)                1.3922         estimate D2E/DX2                !
 ! R121  R(65,123)               1.1001         estimate D2E/DX2                !
 ! R122  R(66,67)                1.3916         estimate D2E/DX2                !
 ! R123  R(66,100)               1.0998         estimate D2E/DX2                !
 ! R124  R(67,101)               1.1025         estimate D2E/DX2                !
 ! R125  R(68,69)                1.3954         estimate D2E/DX2                !
 ! R126  R(68,152)               1.0996         estimate D2E/DX2                !
 ! R127  R(69,70)                1.4063         estimate D2E/DX2                !
 ! R128  R(69,97)                1.3841         estimate D2E/DX2                !
 ! R129  R(70,71)                1.3889         estimate D2E/DX2                !
 ! R130  R(70,124)               1.098          estimate D2E/DX2                !
 ! R131  R(71,72)                1.3933         estimate D2E/DX2                !
 ! R132  R(71,96)                1.1009         estimate D2E/DX2                !
 ! R133  R(72,95)                1.1003         estimate D2E/DX2                !
 ! R134  R(73,74)                1.3911         estimate D2E/DX2                !
 ! R135  R(73,106)               1.1027         estimate D2E/DX2                !
 ! R136  R(74,75)                1.3939         estimate D2E/DX2                !
 ! R137  R(74,107)               1.1018         estimate D2E/DX2                !
 ! R138  R(75,76)                1.3909         estimate D2E/DX2                !
 ! R139  R(75,108)               1.0997         estimate D2E/DX2                !
 ! R140  R(76,77)                1.4011         estimate D2E/DX2                !
 ! R141  R(76,109)               1.1002         estimate D2E/DX2                !
 ! R142  R(77,110)               1.3893         estimate D2E/DX2                !
 ! R143  R(94,147)               1.4225         estimate D2E/DX2                !
 ! R144  R(97,153)               1.4234         estimate D2E/DX2                !
 ! R145  R(99,126)               1.4235         estimate D2E/DX2                !
 ! R146  R(102,157)              1.422          estimate D2E/DX2                !
 ! R147  R(110,125)              1.427          estimate D2E/DX2                !
 ! R148  R(112,128)              1.423          estimate D2E/DX2                !
 ! R149  R(120,127)              1.4238         estimate D2E/DX2                !
 ! R150  R(125,129)              1.1174         estimate D2E/DX2                !
 ! R151  R(125,130)              1.1187         estimate D2E/DX2                !
 ! R152  R(125,131)              1.1159         estimate D2E/DX2                !
 ! R153  R(126,132)              1.1206         estimate D2E/DX2                !
 ! R154  R(126,133)              1.1175         estimate D2E/DX2                !
 ! R155  R(126,134)              1.1164         estimate D2E/DX2                !
 ! R156  R(127,135)              1.1199         estimate D2E/DX2                !
 ! R157  R(127,136)              1.1174         estimate D2E/DX2                !
 ! R158  R(127,137)              1.1164         estimate D2E/DX2                !
 ! R159  R(128,138)              1.1217         estimate D2E/DX2                !
 ! R160  R(128,139)              1.117          estimate D2E/DX2                !
 ! R161  R(128,140)              1.1167         estimate D2E/DX2                !
 ! R162  R(142,143)              1.4225         estimate D2E/DX2                !
 ! R163  R(143,144)              1.1171         estimate D2E/DX2                !
 ! R164  R(143,145)              1.1177         estimate D2E/DX2                !
 ! R165  R(143,146)              1.1196         estimate D2E/DX2                !
 ! R166  R(147,148)              1.12           estimate D2E/DX2                !
 ! R167  R(147,149)              1.1173         estimate D2E/DX2                !
 ! R168  R(147,150)              1.1168         estimate D2E/DX2                !
 ! R169  R(153,154)              1.1166         estimate D2E/DX2                !
 ! R170  R(153,155)              1.1196         estimate D2E/DX2                !
 ! R171  R(153,156)              1.1178         estimate D2E/DX2                !
 ! R172  R(157,159)              1.1196         estimate D2E/DX2                !
 ! R173  R(157,160)              1.1172         estimate D2E/DX2                !
 ! R174  R(157,161)              1.1171         estimate D2E/DX2                !
 ! A1    A(2,1,5)              102.7351         estimate D2E/DX2                !
 ! A2    A(2,1,6)              112.7479         estimate D2E/DX2                !
 ! A3    A(2,1,9)              115.0466         estimate D2E/DX2                !
 ! A4    A(5,1,6)              112.471          estimate D2E/DX2                !
 ! A5    A(5,1,9)              111.5433         estimate D2E/DX2                !
 ! A6    A(6,1,9)              102.6645         estimate D2E/DX2                !
 ! A7    A(1,2,3)              109.8258         estimate D2E/DX2                !
 ! A8    A(1,2,18)             129.0848         estimate D2E/DX2                !
 ! A9    A(3,2,18)             121.0138         estimate D2E/DX2                !
 ! A10   A(2,3,4)              108.8013         estimate D2E/DX2                !
 ! A11   A(2,3,21)             120.2393         estimate D2E/DX2                !
 ! A12   A(4,3,21)             130.9277         estimate D2E/DX2                !
 ! A13   A(3,4,5)              108.635          estimate D2E/DX2                !
 ! A14   A(3,4,14)             131.4335         estimate D2E/DX2                !
 ! A15   A(5,4,14)             119.9252         estimate D2E/DX2                !
 ! A16   A(1,5,4)              109.9912         estimate D2E/DX2                !
 ! A17   A(1,5,17)             128.7752         estimate D2E/DX2                !
 ! A18   A(4,5,17)             121.2335         estimate D2E/DX2                !
 ! A19   A(1,6,7)              110.0606         estimate D2E/DX2                !
 ! A20   A(1,6,10)             128.7535         estimate D2E/DX2                !
 ! A21   A(7,6,10)             121.1859         estimate D2E/DX2                !
 ! A22   A(6,7,8)              108.5853         estimate D2E/DX2                !
 ! A23   A(6,7,13)             120.0832         estimate D2E/DX2                !
 ! A24   A(8,7,13)             131.3303         estimate D2E/DX2                !
 ! A25   A(7,8,9)              108.6667         estimate D2E/DX2                !
 ! A26   A(7,8,22)             131.0696         estimate D2E/DX2                !
 ! A27   A(9,8,22)             120.2451         estimate D2E/DX2                !
 ! A28   A(1,9,8)              109.984          estimate D2E/DX2                !
 ! A29   A(1,9,25)             129.1304         estimate D2E/DX2                !
 ! A30   A(8,9,25)             120.8083         estimate D2E/DX2                !
 ! A31   A(6,10,11)            118.7787         estimate D2E/DX2                !
 ! A32   A(6,10,89)            120.7522         estimate D2E/DX2                !
 ! A33   A(11,10,89)           120.4691         estimate D2E/DX2                !
 ! A34   A(10,11,12)           119.5799         estimate D2E/DX2                !
 ! A35   A(10,11,26)           118.8026         estimate D2E/DX2                !
 ! A36   A(12,11,26)           121.5359         estimate D2E/DX2                !
 ! A37   A(11,12,13)           121.149          estimate D2E/DX2                !
 ! A38   A(11,12,87)           119.7318         estimate D2E/DX2                !
 ! A39   A(13,12,87)           119.1188         estimate D2E/DX2                !
 ! A40   A(7,13,12)            119.2181         estimate D2E/DX2                !
 ! A41   A(7,13,86)            120.8548         estimate D2E/DX2                !
 ! A42   A(12,13,86)           119.9264         estimate D2E/DX2                !
 ! A43   A(4,14,15)            119.4011         estimate D2E/DX2                !
 ! A44   A(4,14,82)            120.717          estimate D2E/DX2                !
 ! A45   A(15,14,82)           119.88           estimate D2E/DX2                !
 ! A46   A(14,15,16)           121.1532         estimate D2E/DX2                !
 ! A47   A(14,15,83)           118.9935         estimate D2E/DX2                !
 ! A48   A(16,15,83)           119.8522         estimate D2E/DX2                !
 ! A49   A(15,16,17)           119.2744         estimate D2E/DX2                !
 ! A50   A(15,16,27)           119.8936         estimate D2E/DX2                !
 ! A51   A(17,16,27)           120.7271         estimate D2E/DX2                !
 ! A52   A(5,17,16)            119.0054         estimate D2E/DX2                !
 ! A53   A(5,17,88)            120.6194         estimate D2E/DX2                !
 ! A54   A(16,17,88)           120.3746         estimate D2E/DX2                !
 ! A55   A(2,18,19)            118.761          estimate D2E/DX2                !
 ! A56   A(2,18,79)            121.0303         estimate D2E/DX2                !
 ! A57   A(19,18,79)           120.1964         estimate D2E/DX2                !
 ! A58   A(18,19,20)           119.6673         estimate D2E/DX2                !
 ! A59   A(18,19,28)           119.4253         estimate D2E/DX2                !
 ! A60   A(20,19,28)           120.8152         estimate D2E/DX2                !
 ! A61   A(19,20,21)           121.1053         estimate D2E/DX2                !
 ! A62   A(19,20,80)           119.9615         estimate D2E/DX2                !
 ! A63   A(21,20,80)           118.9229         estimate D2E/DX2                !
 ! A64   A(3,21,20)            119.1741         estimate D2E/DX2                !
 ! A65   A(3,21,81)            120.8162         estimate D2E/DX2                !
 ! A66   A(20,21,81)           120.0079         estimate D2E/DX2                !
 ! A67   A(8,22,23)            119.2258         estimate D2E/DX2                !
 ! A68   A(8,22,84)            120.7547         estimate D2E/DX2                !
 ! A69   A(23,22,84)           120.0171         estimate D2E/DX2                !
 ! A70   A(22,23,24)           120.9507         estimate D2E/DX2                !
 ! A71   A(22,23,85)           119.0618         estimate D2E/DX2                !
 ! A72   A(24,23,85)           119.9865         estimate D2E/DX2                !
 ! A73   A(23,24,25)           119.7828         estimate D2E/DX2                !
 ! A74   A(23,24,29)           118.321          estimate D2E/DX2                !
 ! A75   A(25,24,29)           121.8961         estimate D2E/DX2                !
 ! A76   A(9,25,24)            118.9473         estimate D2E/DX2                !
 ! A77   A(9,25,78)            120.5548         estimate D2E/DX2                !
 ! A78   A(24,25,78)           120.4959         estimate D2E/DX2                !
 ! A79   A(11,26,34)           120.3283         estimate D2E/DX2                !
 ! A80   A(11,26,35)           117.2198         estimate D2E/DX2                !
 ! A81   A(34,26,35)           118.1673         estimate D2E/DX2                !
 ! A82   A(16,27,36)           120.3163         estimate D2E/DX2                !
 ! A83   A(16,27,37)           118.0324         estimate D2E/DX2                !
 ! A84   A(36,27,37)           117.3685         estimate D2E/DX2                !
 ! A85   A(19,28,31)           120.4364         estimate D2E/DX2                !
 ! A86   A(19,28,33)           117.2382         estimate D2E/DX2                !
 ! A87   A(31,28,33)           118.2412         estimate D2E/DX2                !
 ! A88   A(24,29,30)           116.2558         estimate D2E/DX2                !
 ! A89   A(24,29,32)           116.0216         estimate D2E/DX2                !
 ! A90   A(30,29,32)           118.3371         estimate D2E/DX2                !
 ! A91   A(29,30,73)           122.2159         estimate D2E/DX2                !
 ! A92   A(29,30,77)           120.2655         estimate D2E/DX2                !
 ! A93   A(73,30,77)           117.4416         estimate D2E/DX2                !
 ! A94   A(28,31,58)           121.6684         estimate D2E/DX2                !
 ! A95   A(28,31,62)           119.296          estimate D2E/DX2                !
 ! A96   A(58,31,62)           119.0187         estimate D2E/DX2                !
 ! A97   A(29,32,68)           118.4957         estimate D2E/DX2                !
 ! A98   A(29,32,72)           122.2848         estimate D2E/DX2                !
 ! A99   A(68,32,72)           119.157          estimate D2E/DX2                !
 ! A100  A(28,33,63)           121.2218         estimate D2E/DX2                !
 ! A101  A(28,33,67)           121.0249         estimate D2E/DX2                !
 ! A102  A(63,33,67)           117.745          estimate D2E/DX2                !
 ! A103  A(26,34,43)           119.5522         estimate D2E/DX2                !
 ! A104  A(26,34,47)           121.5927         estimate D2E/DX2                !
 ! A105  A(43,34,47)           118.7951         estimate D2E/DX2                !
 ! A106  A(26,35,48)           123.7326         estimate D2E/DX2                !
 ! A107  A(26,35,52)           118.4911         estimate D2E/DX2                !
 ! A108  A(48,35,52)           117.7764         estimate D2E/DX2                !
 ! A109  A(27,36,38)           119.3227         estimate D2E/DX2                !
 ! A110  A(27,36,42)           121.6562         estimate D2E/DX2                !
 ! A111  A(38,36,42)           119.004          estimate D2E/DX2                !
 ! A112  A(27,37,53)           123.2962         estimate D2E/DX2                !
 ! A113  A(27,37,57)           118.8263         estimate D2E/DX2                !
 ! A114  A(53,37,57)           117.8761         estimate D2E/DX2                !
 ! A115  A(36,38,39)           120.2011         estimate D2E/DX2                !
 ! A116  A(36,38,93)           120.115          estimate D2E/DX2                !
 ! A117  A(39,38,93)           119.6834         estimate D2E/DX2                !
 ! A118  A(38,39,40)           121.3169         estimate D2E/DX2                !
 ! A119  A(38,39,92)           119.2376         estimate D2E/DX2                !
 ! A120  A(40,39,92)           119.4454         estimate D2E/DX2                !
 ! A121  A(39,40,41)           118.5646         estimate D2E/DX2                !
 ! A122  A(39,40,121)          121.6709         estimate D2E/DX2                !
 ! A123  A(41,40,121)          119.7642         estimate D2E/DX2                !
 ! A124  A(40,41,42)           121.4145         estimate D2E/DX2                !
 ! A125  A(40,41,142)          114.6753         estimate D2E/DX2                !
 ! A126  A(42,41,142)          123.9102         estimate D2E/DX2                !
 ! A127  A(36,42,41)           119.4941         estimate D2E/DX2                !
 ! A128  A(36,42,141)          119.8658         estimate D2E/DX2                !
 ! A129  A(41,42,141)          120.6382         estimate D2E/DX2                !
 ! A130  A(34,43,44)           120.2869         estimate D2E/DX2                !
 ! A131  A(34,43,90)           120.0361         estimate D2E/DX2                !
 ! A132  A(44,43,90)           119.677          estimate D2E/DX2                !
 ! A133  A(43,44,45)           121.3956         estimate D2E/DX2                !
 ! A134  A(43,44,91)           119.3282         estimate D2E/DX2                !
 ! A135  A(45,44,91)           119.2761         estimate D2E/DX2                !
 ! A136  A(44,45,46)           118.4467         estimate D2E/DX2                !
 ! A137  A(44,45,122)          120.1274         estimate D2E/DX2                !
 ! A138  A(46,45,122)          121.4256         estimate D2E/DX2                !
 ! A139  A(45,46,47)           121.5424         estimate D2E/DX2                !
 ! A140  A(45,46,94)           124.1276         estimate D2E/DX2                !
 ! A141  A(47,46,94)           114.3206         estimate D2E/DX2                !
 ! A142  A(34,47,46)           119.524          estimate D2E/DX2                !
 ! A143  A(34,47,151)          121.6315         estimate D2E/DX2                !
 ! A144  A(46,47,151)          118.8445         estimate D2E/DX2                !
 ! A145  A(35,48,49)           120.6197         estimate D2E/DX2                !
 ! A146  A(35,48,120)          116.4107         estimate D2E/DX2                !
 ! A147  A(49,48,120)          122.944          estimate D2E/DX2                !
 ! A148  A(48,49,50)           120.0149         estimate D2E/DX2                !
 ! A149  A(48,49,119)          120.3859         estimate D2E/DX2                !
 ! A150  A(50,49,119)          119.5972         estimate D2E/DX2                !
 ! A151  A(49,50,51)           120.1586         estimate D2E/DX2                !
 ! A152  A(49,50,118)          119.6559         estimate D2E/DX2                !
 ! A153  A(51,50,118)          120.1847         estimate D2E/DX2                !
 ! A154  A(50,51,52)           120.3585         estimate D2E/DX2                !
 ! A155  A(50,51,117)          120.1112         estimate D2E/DX2                !
 ! A156  A(52,51,117)          119.5303         estimate D2E/DX2                !
 ! A157  A(35,52,51)           121.0498         estimate D2E/DX2                !
 ! A158  A(35,52,116)          119.5014         estimate D2E/DX2                !
 ! A159  A(51,52,116)          119.4488         estimate D2E/DX2                !
 ! A160  A(37,53,54)           120.5596         estimate D2E/DX2                !
 ! A161  A(37,53,112)          116.1902         estimate D2E/DX2                !
 ! A162  A(54,53,112)          123.2492         estimate D2E/DX2                !
 ! A163  A(53,54,55)           119.9937         estimate D2E/DX2                !
 ! A164  A(53,54,111)          120.556          estimate D2E/DX2                !
 ! A165  A(55,54,111)          119.4491         estimate D2E/DX2                !
 ! A166  A(54,55,56)           120.1894         estimate D2E/DX2                !
 ! A167  A(54,55,113)          119.6011         estimate D2E/DX2                !
 ! A168  A(56,55,113)          120.2084         estimate D2E/DX2                !
 ! A169  A(55,56,57)           120.4175         estimate D2E/DX2                !
 ! A170  A(55,56,114)          120.2441         estimate D2E/DX2                !
 ! A171  A(57,56,114)          119.3379         estimate D2E/DX2                !
 ! A172  A(37,57,56)           120.9306         estimate D2E/DX2                !
 ! A173  A(37,57,115)          119.9031         estimate D2E/DX2                !
 ! A174  A(56,57,115)          119.1595         estimate D2E/DX2                !
 ! A175  A(31,58,59)           120.202          estimate D2E/DX2                !
 ! A176  A(31,58,105)          120.3776         estimate D2E/DX2                !
 ! A177  A(59,58,105)          119.4204         estimate D2E/DX2                !
 ! A178  A(58,59,60)           121.314          estimate D2E/DX2                !
 ! A179  A(58,59,104)          119.2864         estimate D2E/DX2                !
 ! A180  A(60,59,104)          119.3976         estimate D2E/DX2                !
 ! A181  A(59,60,61)           118.6006         estimate D2E/DX2                !
 ! A182  A(59,60,103)          121.6196         estimate D2E/DX2                !
 ! A183  A(61,60,103)          119.7794         estimate D2E/DX2                !
 ! A184  A(60,61,62)           121.4285         estimate D2E/DX2                !
 ! A185  A(60,61,102)          114.6296         estimate D2E/DX2                !
 ! A186  A(62,61,102)          123.9415         estimate D2E/DX2                !
 ! A187  A(31,62,61)           119.4355         estimate D2E/DX2                !
 ! A188  A(31,62,158)          119.7645         estimate D2E/DX2                !
 ! A189  A(61,62,158)          120.7999         estimate D2E/DX2                !
 ! A190  A(33,63,64)           120.34           estimate D2E/DX2                !
 ! A191  A(33,63,99)           116.8614         estimate D2E/DX2                !
 ! A192  A(64,63,99)           122.7833         estimate D2E/DX2                !
 ! A193  A(63,64,65)           120.3057         estimate D2E/DX2                !
 ! A194  A(63,64,98)           120.2305         estimate D2E/DX2                !
 ! A195  A(65,64,98)           119.4619         estimate D2E/DX2                !
 ! A196  A(64,65,66)           120.0969         estimate D2E/DX2                !
 ! A197  A(64,65,123)          119.6955         estimate D2E/DX2                !
 ! A198  A(66,65,123)          120.2074         estimate D2E/DX2                !
 ! A199  A(65,66,67)           120.2266         estimate D2E/DX2                !
 ! A200  A(65,66,100)          120.1782         estimate D2E/DX2                !
 ! A201  A(67,66,100)          119.5942         estimate D2E/DX2                !
 ! A202  A(33,67,66)           121.2718         estimate D2E/DX2                !
 ! A203  A(33,67,101)          119.3232         estimate D2E/DX2                !
 ! A204  A(66,67,101)          119.4036         estimate D2E/DX2                !
 ! A205  A(32,68,69)           119.3345         estimate D2E/DX2                !
 ! A206  A(32,68,152)          119.8785         estimate D2E/DX2                !
 ! A207  A(69,68,152)          120.7868         estimate D2E/DX2                !
 ! A208  A(68,69,70)           121.4767         estimate D2E/DX2                !
 ! A209  A(68,69,97)           123.6185         estimate D2E/DX2                !
 ! A210  A(70,69,97)           114.8974         estimate D2E/DX2                !
 ! A211  A(69,70,71)           118.5808         estimate D2E/DX2                !
 ! A212  A(69,70,124)          119.7535         estimate D2E/DX2                !
 ! A213  A(71,70,124)          121.6657         estimate D2E/DX2                !
 ! A214  A(70,71,72)           121.2365         estimate D2E/DX2                !
 ! A215  A(70,71,96)           119.5171         estimate D2E/DX2                !
 ! A216  A(72,71,96)           119.2464         estimate D2E/DX2                !
 ! A217  A(32,72,71)           120.2084         estimate D2E/DX2                !
 ! A218  A(32,72,95)           120.2584         estimate D2E/DX2                !
 ! A219  A(71,72,95)           119.5193         estimate D2E/DX2                !
 ! A220  A(30,73,74)           121.1754         estimate D2E/DX2                !
 ! A221  A(30,73,106)          119.8598         estimate D2E/DX2                !
 ! A222  A(74,73,106)          118.9626         estimate D2E/DX2                !
 ! A223  A(73,74,75)           120.5598         estimate D2E/DX2                !
 ! A224  A(73,74,107)          119.3172         estimate D2E/DX2                !
 ! A225  A(75,74,107)          120.1222         estimate D2E/DX2                !
 ! A226  A(74,75,76)           119.7026         estimate D2E/DX2                !
 ! A227  A(74,75,108)          120.2633         estimate D2E/DX2                !
 ! A228  A(76,75,108)          120.0341         estimate D2E/DX2                !
 ! A229  A(75,76,77)           120.2352         estimate D2E/DX2                !
 ! A230  A(75,76,109)          120.947          estimate D2E/DX2                !
 ! A231  A(77,76,109)          118.8168         estimate D2E/DX2                !
 ! A232  A(30,77,76)           120.8793         estimate D2E/DX2                !
 ! A233  A(30,77,110)          121.9151         estimate D2E/DX2                !
 ! A234  A(76,77,110)          116.9814         estimate D2E/DX2                !
 ! A235  A(46,94,147)          116.0973         estimate D2E/DX2                !
 ! A236  A(69,97,153)          116.0804         estimate D2E/DX2                !
 ! A237  A(63,99,126)          116.3305         estimate D2E/DX2                !
 ! A238  A(61,102,157)         116.3804         estimate D2E/DX2                !
 ! A239  A(77,110,125)         113.6767         estimate D2E/DX2                !
 ! A240  A(53,112,128)         116.6441         estimate D2E/DX2                !
 ! A241  A(48,120,127)         116.3281         estimate D2E/DX2                !
 ! A242  A(110,125,129)        110.0097         estimate D2E/DX2                !
 ! A243  A(110,125,130)        103.5752         estimate D2E/DX2                !
 ! A244  A(110,125,131)        111.2056         estimate D2E/DX2                !
 ! A245  A(129,125,130)        110.811          estimate D2E/DX2                !
 ! A246  A(129,125,131)        110.2859         estimate D2E/DX2                !
 ! A247  A(130,125,131)        110.787          estimate D2E/DX2                !
 ! A248  A(99,126,132)         103.225          estimate D2E/DX2                !
 ! A249  A(99,126,133)         110.3796         estimate D2E/DX2                !
 ! A250  A(99,126,134)         111.2261         estimate D2E/DX2                !
 ! A251  A(132,126,133)        110.4873         estimate D2E/DX2                !
 ! A252  A(132,126,134)        110.721          estimate D2E/DX2                !
 ! A253  A(133,126,134)        110.5927         estimate D2E/DX2                !
 ! A254  A(120,127,135)        103.2729         estimate D2E/DX2                !
 ! A255  A(120,127,136)        110.2906         estimate D2E/DX2                !
 ! A256  A(120,127,137)        111.148          estimate D2E/DX2                !
 ! A257  A(135,127,136)        110.5372         estimate D2E/DX2                !
 ! A258  A(135,127,137)        110.756          estimate D2E/DX2                !
 ! A259  A(136,127,137)        110.6265         estimate D2E/DX2                !
 ! A260  A(112,128,138)        103.0285         estimate D2E/DX2                !
 ! A261  A(112,128,139)        110.851          estimate D2E/DX2                !
 ! A262  A(112,128,140)        110.6936         estimate D2E/DX2                !
 ! A263  A(138,128,139)        110.4452         estimate D2E/DX2                !
 ! A264  A(138,128,140)        110.8825         estimate D2E/DX2                !
 ! A265  A(139,128,140)        110.7129         estimate D2E/DX2                !
 ! A266  A(41,142,143)         116.3499         estimate D2E/DX2                !
 ! A267  A(142,143,144)        110.6354         estimate D2E/DX2                !
 ! A268  A(142,143,145)        110.825          estimate D2E/DX2                !
 ! A269  A(142,143,146)        103.45           estimate D2E/DX2                !
 ! A270  A(144,143,145)        110.4929         estimate D2E/DX2                !
 ! A271  A(144,143,146)        110.5858         estimate D2E/DX2                !
 ! A272  A(145,143,146)        110.6637         estimate D2E/DX2                !
 ! A273  A(94,147,148)         103.3898         estimate D2E/DX2                !
 ! A274  A(94,147,149)         110.507          estimate D2E/DX2                !
 ! A275  A(94,147,150)         110.9327         estimate D2E/DX2                !
 ! A276  A(148,147,149)        110.6541         estimate D2E/DX2                !
 ! A277  A(148,147,150)        110.6801         estimate D2E/DX2                !
 ! A278  A(149,147,150)        110.487          estimate D2E/DX2                !
 ! A279  A(97,153,154)         110.9786         estimate D2E/DX2                !
 ! A280  A(97,153,155)         103.467          estimate D2E/DX2                !
 ! A281  A(97,153,156)         110.3794         estimate D2E/DX2                !
 ! A282  A(154,153,155)        110.8002         estimate D2E/DX2                !
 ! A283  A(154,153,156)        110.5648         estimate D2E/DX2                !
 ! A284  A(155,153,156)        110.4557         estimate D2E/DX2                !
 ! A285  A(102,157,159)        103.4468         estimate D2E/DX2                !
 ! A286  A(102,157,160)        110.6856         estimate D2E/DX2                !
 ! A287  A(102,157,161)        110.7915         estimate D2E/DX2                !
 ! A288  A(159,157,160)        110.5917         estimate D2E/DX2                !
 ! A289  A(159,157,161)        110.6543         estimate D2E/DX2                !
 ! A290  A(160,157,161)        110.4837         estimate D2E/DX2                !
 ! D1    D(5,1,2,3)              0.372          estimate D2E/DX2                !
 ! D2    D(5,1,2,18)          -176.4411         estimate D2E/DX2                !
 ! D3    D(6,1,2,3)            121.6821         estimate D2E/DX2                !
 ! D4    D(6,1,2,18)           -55.1311         estimate D2E/DX2                !
 ! D5    D(9,1,2,3)           -121.0376         estimate D2E/DX2                !
 ! D6    D(9,1,2,18)            62.1492         estimate D2E/DX2                !
 ! D7    D(2,1,5,4)             -0.9162         estimate D2E/DX2                !
 ! D8    D(2,1,5,17)           179.1984         estimate D2E/DX2                !
 ! D9    D(6,1,5,4)           -122.4152         estimate D2E/DX2                !
 ! D10   D(6,1,5,17)            57.6994         estimate D2E/DX2                !
 ! D11   D(9,1,5,4)            122.8534         estimate D2E/DX2                !
 ! D12   D(9,1,5,17)           -57.032          estimate D2E/DX2                !
 ! D13   D(2,1,6,7)            125.394          estimate D2E/DX2                !
 ! D14   D(2,1,6,10)           -54.5515         estimate D2E/DX2                !
 ! D15   D(5,1,6,7)           -119.0046         estimate D2E/DX2                !
 ! D16   D(5,1,6,10)            61.0498         estimate D2E/DX2                !
 ! D17   D(9,1,6,7)              1.0105         estimate D2E/DX2                !
 ! D18   D(9,1,6,10)          -178.935          estimate D2E/DX2                !
 ! D19   D(2,1,9,8)           -124.7053         estimate D2E/DX2                !
 ! D20   D(2,1,9,25)            58.5256         estimate D2E/DX2                !
 ! D21   D(5,1,9,8)            118.802          estimate D2E/DX2                !
 ! D22   D(5,1,9,25)           -57.9671         estimate D2E/DX2                !
 ! D23   D(6,1,9,8)             -1.8539         estimate D2E/DX2                !
 ! D24   D(6,1,9,25)          -178.623          estimate D2E/DX2                !
 ! D25   D(1,2,3,4)              0.2815         estimate D2E/DX2                !
 ! D26   D(1,2,3,21)          -177.8865         estimate D2E/DX2                !
 ! D27   D(18,2,3,4)           177.3955         estimate D2E/DX2                !
 ! D28   D(18,2,3,21)           -0.7725         estimate D2E/DX2                !
 ! D29   D(1,2,18,19)          175.5994         estimate D2E/DX2                !
 ! D30   D(1,2,18,79)           -3.1266         estimate D2E/DX2                !
 ! D31   D(3,2,18,19)           -0.9023         estimate D2E/DX2                !
 ! D32   D(3,2,18,79)         -179.6282         estimate D2E/DX2                !
 ! D33   D(2,3,4,5)             -0.877          estimate D2E/DX2                !
 ! D34   D(2,3,4,14)          -179.9389         estimate D2E/DX2                !
 ! D35   D(21,3,4,5)           177.0281         estimate D2E/DX2                !
 ! D36   D(21,3,4,14)           -2.0339         estimate D2E/DX2                !
 ! D37   D(2,3,21,20)            1.1468         estimate D2E/DX2                !
 ! D38   D(2,3,21,81)         -179.3547         estimate D2E/DX2                !
 ! D39   D(4,3,21,20)         -176.5576         estimate D2E/DX2                !
 ! D40   D(4,3,21,81)            2.941          estimate D2E/DX2                !
 ! D41   D(3,4,5,1)              1.13           estimate D2E/DX2                !
 ! D42   D(3,4,5,17)          -178.9745         estimate D2E/DX2                !
 ! D43   D(14,4,5,1)          -179.6814         estimate D2E/DX2                !
 ! D44   D(14,4,5,17)            0.2141         estimate D2E/DX2                !
 ! D45   D(3,4,14,15)          178.4373         estimate D2E/DX2                !
 ! D46   D(3,4,14,82)           -1.0515         estimate D2E/DX2                !
 ! D47   D(5,4,14,15)           -0.5371         estimate D2E/DX2                !
 ! D48   D(5,4,14,82)          179.9741         estimate D2E/DX2                !
 ! D49   D(1,5,17,16)         -179.583          estimate D2E/DX2                !
 ! D50   D(1,5,17,88)            0.1578         estimate D2E/DX2                !
 ! D51   D(4,5,17,16)            0.5429         estimate D2E/DX2                !
 ! D52   D(4,5,17,88)         -179.7163         estimate D2E/DX2                !
 ! D53   D(1,6,7,8)              0.1534         estimate D2E/DX2                !
 ! D54   D(1,6,7,13)           179.8            estimate D2E/DX2                !
 ! D55   D(10,6,7,8)          -179.8962         estimate D2E/DX2                !
 ! D56   D(10,6,7,13)           -0.2497         estimate D2E/DX2                !
 ! D57   D(1,6,10,11)          179.8821         estimate D2E/DX2                !
 ! D58   D(1,6,10,89)           -0.1401         estimate D2E/DX2                !
 ! D59   D(7,6,10,11)           -0.0581         estimate D2E/DX2                !
 ! D60   D(7,6,10,89)          179.9197         estimate D2E/DX2                !
 ! D61   D(6,7,8,9)             -1.3612         estimate D2E/DX2                !
 ! D62   D(6,7,8,22)           177.0317         estimate D2E/DX2                !
 ! D63   D(13,7,8,9)           179.046          estimate D2E/DX2                !
 ! D64   D(13,7,8,22)           -2.561          estimate D2E/DX2                !
 ! D65   D(6,7,13,12)           -0.0167         estimate D2E/DX2                !
 ! D66   D(6,7,13,86)         -179.6996         estimate D2E/DX2                !
 ! D67   D(8,7,13,12)          179.5372         estimate D2E/DX2                !
 ! D68   D(8,7,13,86)           -0.1457         estimate D2E/DX2                !
 ! D69   D(7,8,9,1)              2.0426         estimate D2E/DX2                !
 ! D70   D(7,8,9,25)           179.1248         estimate D2E/DX2                !
 ! D71   D(22,8,9,1)          -176.555          estimate D2E/DX2                !
 ! D72   D(22,8,9,25)            0.5273         estimate D2E/DX2                !
 ! D73   D(7,8,22,23)         -177.3143         estimate D2E/DX2                !
 ! D74   D(7,8,22,84)            2.1233         estimate D2E/DX2                !
 ! D75   D(9,8,22,23)            0.9233         estimate D2E/DX2                !
 ! D76   D(9,8,22,84)         -179.6391         estimate D2E/DX2                !
 ! D77   D(1,9,25,24)          174.4035         estimate D2E/DX2                !
 ! D78   D(1,9,25,78)           -5.0939         estimate D2E/DX2                !
 ! D79   D(8,9,25,24)           -2.0609         estimate D2E/DX2                !
 ! D80   D(8,9,25,78)          178.4418         estimate D2E/DX2                !
 ! D81   D(6,10,11,12)           0.622          estimate D2E/DX2                !
 ! D82   D(6,10,11,26)        -176.143          estimate D2E/DX2                !
 ! D83   D(89,10,11,12)       -179.3559         estimate D2E/DX2                !
 ! D84   D(89,10,11,26)          3.8792         estimate D2E/DX2                !
 ! D85   D(10,11,12,13)         -0.9024         estimate D2E/DX2                !
 ! D86   D(10,11,12,87)        178.8472         estimate D2E/DX2                !
 ! D87   D(26,11,12,13)        175.7715         estimate D2E/DX2                !
 ! D88   D(26,11,12,87)         -4.4789         estimate D2E/DX2                !
 ! D89   D(10,11,26,34)        -57.9831         estimate D2E/DX2                !
 ! D90   D(10,11,26,35)        145.6814         estimate D2E/DX2                !
 ! D91   D(12,11,26,34)        125.3178         estimate D2E/DX2                !
 ! D92   D(12,11,26,35)        -31.0176         estimate D2E/DX2                !
 ! D93   D(11,12,13,7)           0.5935         estimate D2E/DX2                !
 ! D94   D(11,12,13,86)       -179.7206         estimate D2E/DX2                !
 ! D95   D(87,12,13,7)        -179.1577         estimate D2E/DX2                !
 ! D96   D(87,12,13,86)          0.5283         estimate D2E/DX2                !
 ! D97   D(4,14,15,16)           0.1011         estimate D2E/DX2                !
 ! D98   D(4,14,15,83)        -179.5012         estimate D2E/DX2                !
 ! D99   D(82,14,15,16)        179.5943         estimate D2E/DX2                !
 ! D100  D(82,14,15,83)         -0.008          estimate D2E/DX2                !
 ! D101  D(14,15,16,17)          0.6548         estimate D2E/DX2                !
 ! D102  D(14,15,16,27)       -175.6495         estimate D2E/DX2                !
 ! D103  D(83,15,16,17)       -179.7463         estimate D2E/DX2                !
 ! D104  D(83,15,16,27)          3.9494         estimate D2E/DX2                !
 ! D105  D(15,16,17,5)          -0.9644         estimate D2E/DX2                !
 ! D106  D(15,16,17,88)        179.2941         estimate D2E/DX2                !
 ! D107  D(27,16,17,5)         175.3083         estimate D2E/DX2                !
 ! D108  D(27,16,17,88)         -4.4332         estimate D2E/DX2                !
 ! D109  D(15,16,27,36)        -44.8655         estimate D2E/DX2                !
 ! D110  D(15,16,27,37)        158.9789         estimate D2E/DX2                !
 ! D111  D(17,16,27,36)        138.8847         estimate D2E/DX2                !
 ! D112  D(17,16,27,37)        -17.2708         estimate D2E/DX2                !
 ! D113  D(2,18,19,20)           2.175          estimate D2E/DX2                !
 ! D114  D(2,18,19,28)        -174.3634         estimate D2E/DX2                !
 ! D115  D(79,18,19,20)       -179.0881         estimate D2E/DX2                !
 ! D116  D(79,18,19,28)          4.3735         estimate D2E/DX2                !
 ! D117  D(18,19,20,21)         -1.8328         estimate D2E/DX2                !
 ! D118  D(18,19,20,80)        179.3468         estimate D2E/DX2                !
 ! D119  D(28,19,20,21)        174.6565         estimate D2E/DX2                !
 ! D120  D(28,19,20,80)         -4.1639         estimate D2E/DX2                !
 ! D121  D(18,19,28,31)        -60.1422         estimate D2E/DX2                !
 ! D122  D(18,19,28,33)        142.9728         estimate D2E/DX2                !
 ! D123  D(20,19,28,31)        123.3602         estimate D2E/DX2                !
 ! D124  D(20,19,28,33)        -33.5248         estimate D2E/DX2                !
 ! D125  D(19,20,21,3)           0.1541         estimate D2E/DX2                !
 ! D126  D(19,20,21,81)       -179.3485         estimate D2E/DX2                !
 ! D127  D(80,20,21,3)         178.9865         estimate D2E/DX2                !
 ! D128  D(80,20,21,81)         -0.5162         estimate D2E/DX2                !
 ! D129  D(8,22,23,24)          -0.8007         estimate D2E/DX2                !
 ! D130  D(8,22,23,85)         178.8403         estimate D2E/DX2                !
 ! D131  D(84,22,23,24)        179.7575         estimate D2E/DX2                !
 ! D132  D(84,22,23,85)         -0.6015         estimate D2E/DX2                !
 ! D133  D(22,23,24,25)         -0.7475         estimate D2E/DX2                !
 ! D134  D(22,23,24,29)        179.1325         estimate D2E/DX2                !
 ! D135  D(85,23,24,25)        179.6148         estimate D2E/DX2                !
 ! D136  D(85,23,24,29)         -0.5052         estimate D2E/DX2                !
 ! D137  D(23,24,25,9)           2.1667         estimate D2E/DX2                !
 ! D138  D(23,24,25,78)       -178.3357         estimate D2E/DX2                !
 ! D139  D(29,24,25,9)        -177.7089         estimate D2E/DX2                !
 ! D140  D(29,24,25,78)          1.7887         estimate D2E/DX2                !
 ! D141  D(23,24,29,30)        -97.7177         estimate D2E/DX2                !
 ! D142  D(23,24,29,32)        116.2059         estimate D2E/DX2                !
 ! D143  D(25,24,29,30)         82.1596         estimate D2E/DX2                !
 ! D144  D(25,24,29,32)        -63.9167         estimate D2E/DX2                !
 ! D145  D(11,26,34,43)        170.0629         estimate D2E/DX2                !
 ! D146  D(11,26,34,47)         -7.0855         estimate D2E/DX2                !
 ! D147  D(35,26,34,43)        -33.8208         estimate D2E/DX2                !
 ! D148  D(35,26,34,47)        149.0308         estimate D2E/DX2                !
 ! D149  D(11,26,35,48)         90.403          estimate D2E/DX2                !
 ! D150  D(11,26,35,52)        -89.5596         estimate D2E/DX2                !
 ! D151  D(34,26,35,48)        -66.4562         estimate D2E/DX2                !
 ! D152  D(34,26,35,52)        113.5811         estimate D2E/DX2                !
 ! D153  D(16,27,36,38)        157.9755         estimate D2E/DX2                !
 ! D154  D(16,27,36,42)        -20.5061         estimate D2E/DX2                !
 ! D155  D(37,27,36,38)        -45.7154         estimate D2E/DX2                !
 ! D156  D(37,27,36,42)        135.803          estimate D2E/DX2                !
 ! D157  D(16,27,37,53)         95.2207         estimate D2E/DX2                !
 ! D158  D(16,27,37,57)        -85.2327         estimate D2E/DX2                !
 ! D159  D(36,27,37,53)        -61.6407         estimate D2E/DX2                !
 ! D160  D(36,27,37,57)        117.906          estimate D2E/DX2                !
 ! D161  D(19,28,31,58)        -11.5697         estimate D2E/DX2                !
 ! D162  D(19,28,31,62)        166.9179         estimate D2E/DX2                !
 ! D163  D(33,28,31,58)        145.0889         estimate D2E/DX2                !
[...]
 Alpha virt. eigenvalues --    2.28907   2.29068   2.29092   2.29482   2.29590
 Alpha virt. eigenvalues --    2.29842   2.30245   2.30488   2.31120   2.31191
 Alpha virt. eigenvalues --    2.31403   2.31448   2.31651   2.32010   2.32268
 Alpha virt. eigenvalues --    2.32386   2.32572   2.32591   2.33454   2.33846
 Alpha virt. eigenvalues --    2.34138   2.34297   2.34934   2.35168   2.35493
 Alpha virt. eigenvalues --    2.36109   2.36331   2.36464   2.36769   2.37415
 Alpha virt. eigenvalues --    2.37552   2.37634   2.37788   2.38723   2.38888
 Alpha virt. eigenvalues --    2.39092   2.39465   2.39875   2.40521   2.40565
 Alpha virt. eigenvalues --    2.41833   2.42540   2.43388   2.43525   2.43764
 Alpha virt. eigenvalues --    2.44708   2.45618   2.46058   2.46795   2.47991
 Alpha virt. eigenvalues --    2.49150   2.49277   2.49814   2.50677   2.50868
 Alpha virt. eigenvalues --    2.51669   2.51958   2.53194   2.53400   2.53892
 Alpha virt. eigenvalues --    2.53954   2.54457   2.54645   2.55079   2.55515
 Alpha virt. eigenvalues --    2.55954   2.56431   2.56772   2.56951   2.57255
 Alpha virt. eigenvalues --    2.57561   2.57971   2.58304   2.58766   2.58898
 Alpha virt. eigenvalues --    2.59088   2.59307   2.59930   2.60144   2.60621
 Alpha virt. eigenvalues --    2.60807   2.61251   2.61815   2.62611   2.62856
 Alpha virt. eigenvalues --    2.63281   2.63634   2.63769   2.64038   2.64386
 Alpha virt. eigenvalues --    2.65575   2.65709   2.65905   2.65999   2.66216
 Alpha virt. eigenvalues --    2.66331   2.66580   2.66792   2.66977   2.67107
 Alpha virt. eigenvalues --    2.67482   2.67737   2.67797   2.68123   2.68483
 Alpha virt. eigenvalues --    2.68733   2.69130   2.69809   2.69921   2.70258
 Alpha virt. eigenvalues --    2.70509   2.70609   2.71019   2.71228   2.71378
 Alpha virt. eigenvalues --    2.71986   2.72401   2.73341   2.73533   2.73849
 Alpha virt. eigenvalues --    2.74000   2.74501   2.74937   2.75390   2.75756
 Alpha virt. eigenvalues --    2.76132   2.76211   2.76325   2.76783   2.77505
 Alpha virt. eigenvalues --    2.77973   2.78825   2.79389   2.79582   2.80466
 Alpha virt. eigenvalues --    2.81009   2.81558   2.82432   2.82758   2.82925
 Alpha virt. eigenvalues --    2.83103   2.83425   2.83940   2.84217   2.84831
 Alpha virt. eigenvalues --    2.85359   2.86107   2.86476   2.86653   2.86820
 Alpha virt. eigenvalues --    2.87676   2.88321   2.89031   2.89211   2.89576
 Alpha virt. eigenvalues --    2.89948   2.90591   2.91782   2.92314   2.93150
 Alpha virt. eigenvalues --    2.93637   2.95111   2.96719   2.97833   2.98464
 Alpha virt. eigenvalues --    2.98929   2.99528   2.99744   2.99972   3.00167
 Alpha virt. eigenvalues --    3.00588   3.00596   3.01275   3.01693   3.02262
 Alpha virt. eigenvalues --    3.02980   3.03120   3.03858   3.04849   3.06012
 Alpha virt. eigenvalues --    3.06689   3.08061   3.09750   3.10478   3.12480
 Alpha virt. eigenvalues --    3.13299   3.15457   3.17990   3.19428   3.22662
 Alpha virt. eigenvalues --    3.23834   3.26382   3.27564   3.27962   3.28550
 Alpha virt. eigenvalues --    3.29137   3.31376   3.32893   3.36868   3.38586
 Alpha virt. eigenvalues --    3.43166   3.43416   3.43523   3.44172   3.44483
 Alpha virt. eigenvalues --    3.45076   3.45238   3.45294   3.52277   3.53124
 Alpha virt. eigenvalues --    4.05422   4.05927   4.06151   4.06651   4.06759
 Alpha virt. eigenvalues --    4.06894   4.07399   4.07638   4.09290   4.09622
 Alpha virt. eigenvalues --    4.09814   4.09969   4.10438   4.10726   4.10906
 Alpha virt. eigenvalues --    4.11887   4.12163   4.13305   4.13562   4.14111
 Alpha virt. eigenvalues --    4.14713   4.15452   4.15989   4.16347   4.16773
 Alpha virt. eigenvalues --    4.17044   4.17538   4.17687   4.17995   4.18273
 Alpha virt. eigenvalues --    4.18543   4.18664   4.19246   4.21031   4.21052
 Alpha virt. eigenvalues --    4.21248   4.22000   4.22433   4.22787   4.23089
 Alpha virt. eigenvalues --    4.23367   4.24262   4.24607   4.24876   4.26473
 Alpha virt. eigenvalues --    4.26983   4.27499   4.27742   4.33157   4.33633
 Alpha virt. eigenvalues --    4.34112   4.34425   4.34602   4.35189   4.35663
 Alpha virt. eigenvalues --    4.36183   4.36866   4.37295   4.37850   4.38500
 Alpha virt. eigenvalues --    4.39624   4.40132   4.40456   4.41401   4.41749
 Alpha virt. eigenvalues --    4.41968   4.42773   4.43392   4.47044   4.50037
 Alpha virt. eigenvalues --    4.50564   4.51054   4.52206   4.53206   4.53902
 Alpha virt. eigenvalues --    4.55379   4.55903   4.56076   4.57327   4.59043
 Alpha virt. eigenvalues --    4.65318   4.76932   4.77227   4.77342   4.78374
 Alpha virt. eigenvalues --    4.79054   4.84337   4.85440   4.86943   4.88685
 Alpha virt. eigenvalues --    4.89323   4.90349   4.91766
          Condensed to atoms (all electrons):
 Mulliken atomic charges:
              1
     1  C   -0.270987
     2  C    0.112619
     3  C    0.073288
     4  C    0.075875
     5  C    0.123442
     6  C    0.127035
     7  C    0.071881
     8  C    0.078634
     9  C    0.119569
    10  C   -0.238983
    11  C    0.288051
    12  C   -0.170103
    13  C   -0.201714
    14  C   -0.205287
    15  C   -0.180263
    16  C    0.290790
    17  C   -0.240953
    18  C   -0.218191
    19  C    0.313444
    20  C   -0.184029
    21  C   -0.206494
    22  C   -0.204223
    23  C   -0.158839
    24  C    0.231756
    25  C   -0.218247
    26  N   -0.654495
    27  N   -0.651765
    28  N   -0.646753
    29  N   -0.662835
    30  C    0.275733
    31  C    0.293127
    32  C    0.310147
    33  C    0.206187
    34  C    0.340397
    35  C    0.195114
    36  C    0.332929
    37  C    0.203053
    38  C   -0.189304
    39  C   -0.142225
    40  C   -0.176442
    41  C    0.376214
    42  C   -0.255558
    43  C   -0.185515
    44  C   -0.147672
    45  C   -0.198318
    46  C    0.374846
    47  C   -0.233436
    48  C    0.372427
    49  C   -0.209723
    50  C   -0.132228
    51  C   -0.144607
    52  C   -0.170828
    53  C    0.372063
    54  C   -0.209028
    55  C   -0.132260
    56  C   -0.154156
    57  C   -0.177657
    58  C   -0.190845
    59  C   -0.161516
    60  C   -0.183013
    61  C    0.378138
    62  C   -0.244992
    63  C    0.364819
    64  C   -0.209204
    65  C   -0.134200
    66  C   -0.145163
    67  C   -0.171172
    68  C   -0.247176
    69  C    0.378016
    70  C   -0.173520
    71  C   -0.145359
    72  C   -0.168525
    73  C   -0.201931
    74  C   -0.157412
    75  C   -0.143250
    76  C   -0.172567
    77  C    0.326067
    78  H    0.151671
    79  H    0.146029
    80  H    0.138889
    81  H    0.127723
    82  H    0.128560
    83  H    0.142501
    84  H    0.130725
    85  H    0.132896
    86  H    0.129548
    87  H    0.139786
    88  H    0.149865
    89  H    0.154213
    90  H    0.132632
    91  H    0.125561
    92  H    0.123925
    93  H    0.131787
    94  O   -0.512443
    95  H    0.133752
    96  H    0.127743
    97  O   -0.519381
    98  H    0.132270
    99  O   -0.504372
   100  H    0.127118
   101  H    0.146862
   102  O   -0.512513
   103  H    0.127023
   104  H    0.158543
   105  H    0.142575
   106  H    0.156700
   107  H    0.149705
   108  H    0.126858
   109  H    0.133331
   110  O   -0.520915
   111  H    0.131021
   112  O   -0.505593
   113  H    0.124885
   114  H    0.140030
   115  H    0.155433
   116  H    0.150430
   117  H    0.129253
   118  H    0.129432
   119  H    0.134127
   120  O   -0.501451
   121  H    0.128186
   122  H    0.125945
   123  H    0.126522
   124  H    0.131232
   125  C   -0.208831
   126  C   -0.222532
   127  C   -0.215319
   128  C   -0.214968
   129  H    0.136780
   130  H    0.161525
   131  H    0.155894
   132  H    0.181628
   133  H    0.147560
   134  H    0.154441
   135  H    0.175090
   136  H    0.150863
   137  H    0.153227
   138  H    0.173003
   139  H    0.151305
   140  H    0.152499
   141  H    0.147780
   142  O   -0.513719
   143  C   -0.222956
   144  H    0.151211
   145  H    0.163521
   146  H    0.164682
   147  C   -0.215913
   148  H    0.172491
   149  H    0.150466
   150  H    0.153731
   151  H    0.159693
   152  H    0.137497
   153  C   -0.219333
   154  H    0.149357
   155  H    0.167197
   156  H    0.164769
   157  C   -0.212744
   158  H    0.139752
   159  H    0.165031
   160  H    0.153905
   161  H    0.150099
 Sum of Mulliken atomic charges =   0.00000
 Mulliken charges with hydrogens summed into heavy atoms:
              1
     1  C   -0.270987
     2  C    0.112619
     3  C    0.073288
     4  C    0.075875
     5  C    0.123442
     6  C    0.127035
     7  C    0.071881
     8  C    0.078634
     9  C    0.119569
    10  C   -0.084770
    11  C    0.288051
    12  C   -0.030317
    13  C   -0.072166
    14  C   -0.076727
    15  C   -0.037762
    16  C    0.290790
    17  C   -0.091088
    18  C   -0.072163
    19  C    0.313444
    20  C   -0.045140
    21  C   -0.078771
    22  C   -0.073497
    23  C   -0.025943
    24  C    0.231756
    25  C   -0.066576
    26  N   -0.654495
    27  N   -0.651765
    28  N   -0.646753
    29  N   -0.662835
    30  C    0.275733
    31  C    0.293127
    32  C    0.310147
    33  C    0.206187
    34  C    0.340397
    35  C    0.195114
    36  C    0.332929
    37  C    0.203053
    38  C   -0.057517
    39  C   -0.018301
    40  C   -0.048256
    41  C    0.376214
    42  C   -0.107778
    43  C   -0.052884
    44  C   -0.022111
    45  C   -0.072372
    46  C    0.374846
    47  C   -0.073743
    48  C    0.372427
    49  C   -0.075595
    50  C   -0.002796
    51  C   -0.015354
    52  C   -0.020398
    53  C    0.372063
    54  C   -0.078006
    55  C   -0.007375
    56  C   -0.014126
    57  C   -0.022225
    58  C   -0.048270
    59  C   -0.002973
    60  C   -0.055991
    61  C    0.378138
    62  C   -0.105240
    63  C    0.364819
    64  C   -0.076935
    65  C   -0.007677
    66  C   -0.018045
    67  C   -0.024310
    68  C   -0.109678
    69  C    0.378016
    70  C   -0.042287
    71  C   -0.017616
    72  C   -0.034773
    73  C   -0.045230
    74  C   -0.007707
    75  C   -0.016393
    76  C   -0.039236
    77  C    0.326067
    94  O   -0.512443
    97  O   -0.519381
    99  O   -0.504372
   102  O   -0.512513
   110  O   -0.520915
   112  O   -0.505593
   120  O   -0.501451
   125  C    0.245369
   126  C    0.261097
   127  C    0.263861
   128  C    0.261838
   142  O   -0.513719
   143  C    0.256458
   147  C    0.260776
   153  C    0.261989
   157  C    0.256290
 Sum of Mulliken charges with hydrogens summed into heavy atoms =   0.00000
 Electronic spatial extent (au):  <R**2>=          93810.4200
 Charge=              0.0000 electrons
 Dipole moment (field-independent basis, Debye):
    X=             -4.5926    Y=             -5.9780    Z=             -3.1524  Tot=              8.1711
 Quadrupole moment (field-independent basis, Debye-Ang):
   XX=           -494.8105   YY=           -506.1741   ZZ=           -494.5147
   XY=             13.4036   XZ=            -12.2671   YZ=              1.0906
 Traceless Quadrupole moment (field-independent basis, Debye-Ang):
   XX=              3.6892   YY=             -7.6743   ZZ=              3.9851
   XY=             13.4036   XZ=            -12.2671   YZ=              1.0906
 Octapole moment (field-independent basis, Debye-Ang**2):
  XXX=           -337.3287  YYY=           -465.3549  ZZZ=            -85.8693  XYY=           -108.3090
  XXY=           -105.3873  XXZ=           -143.7932  XZZ=            -41.2322  YZZ=            -31.0479
  YYZ=            -76.8748  XYZ=            -11.7464
 Hexadecapole moment (field-independent basis, Debye-Ang**3):
 XXXX=         -57415.1414 YYYY=         -49125.7166 ZZZZ=         -15104.4672 XXXY=           -144.7017
 XXXZ=           -626.6064 YYYX=            806.6725 YYYZ=            -48.8698 ZZZX=           -216.8998
 ZZZY=             -4.3239 XXYY=         -17770.1483 XXZZ=         -11942.6359 YYZZ=          -9812.1998
 XXYZ=            592.8642 YYXZ=            316.0240 ZZXY=            439.8679
 N-N= 1.715146890280D+04 E-N=-4.347636998095D+04  KE= 3.911045261724D+03
 Leave Link  601 at Sat Mar 28 06:21:17 2015, MaxMem= 2684354560 cpu:      54.6
 (Enter /opt/g09/l9999.exe)
 1\1\GINC-CHPC-SCANDIUM\FOpt\RB3LYP\6-31G(d)\C81H68N4O8\JARVIST\28-Mar-
 2015\0\\#p opt b3lyp/6-31g*\\Spiro Meta-Ortho; B3lyp Geom opt\\0,1\C,-
 0.1016073136,0.0625711479,0.0095955991\C,-1.1070461013,0.5368974871,1.
 0639952342\C,-0.6245635309,0.2637438286,2.3624257132\C,0.7003778262,-0
 .3502010153,2.2567592924\C,1.0217810447,-0.4992994179,0.8952086849\C,-
 0.6633401049,-0.9675120178,-0.9756508349\C,-0.4164248811,-0.5715100736
 ,-2.3041138128\C,0.3063642343,0.7034878234,-2.2878708169\C,0.446243134
 3,1.1241736211,-0.9494611641\C,-1.3308853639,-2.147523415,-0.689172670
 9\C,-1.7599714922,-2.9677148647,-1.749248179\C,-1.5118762428,-2.571734
 774,-3.0770203121\C,-0.8498284873,-1.3793745271,-3.3579058871\C,1.6169
 835484,-0.7645512883,3.2268284488\C,2.8320031809,-1.3200930357,2.83147
 09294\C,3.1565222296,-1.4589079171,1.4678020184\C,2.230831796,-1.04203
 25647,0.4929598322\C,-2.3603616001,1.0933146385,0.8689279442\C,-3.1623
 936696,1.3871119388,1.9879784037\C,-2.6769006327,1.1256983283,3.279340
 599\C,-1.4158884041,0.5630071002,3.4716081541\C,0.8701763611,1.4581321
 885,-3.3193996054\C,1.5859282337,2.6135661189,-3.002669336\C,1.7191405
 779,3.0334633426,-1.6715803036\C,1.1239414313,2.2926574858,-0.63745058
 81\N,-2.461249202,-4.1767327523,-1.4949592569\N,4.3940449338,-2.023317
 4419,1.0664587222\N,-4.4718570675,1.9128035244,1.8080949502\N,2.518610
 8867,4.1879426489,-1.3655886998\C,3.9274449698,4.0080026722,-1.3020679
 554\C,-4.6789520921,3.066506623,1.0076874842\C,1.8759823179,5.26681259
 9,-0.6940716168\C,-5.5247250203,1.4378610782,2.6383012529\C,-2.0910867
 942,-5.0314299032,-0.4280332799\C,-3.631792843,-4.4563321679,-2.256590
 85\C,5.5952882402,-1.7326212205,1.7617012016\C,4.3952115685,-2.9833866
 605,0.0142362471\C,6.5661529151,-2.7229761674,1.9519392601\C,7.7526077
 781,-2.4051117575,2.6171466926\C,7.9840855431,-1.1277381626,3.11188426
 77\C,7.0081830702,-0.1360657414,2.9238918315\C,5.8239000766,-0.4307985
 986,2.2461443414\C,-3.0730751477,-5.7330739163,0.2963129997\C,-2.69082
 40527,-6.5784943928,1.3311810247\C,-1.3493084321,-6.7425760073,1.68774
 3623\C,-0.3775792777,-6.040196192,0.9648893482\C,-0.7437584256,-5.1981
 722319,-0.0895822717\C,-3.7593021655,-5.6806945668,-2.9586479509\C,-4.
 9195084174,-5.937459171,-3.6969025078\C,-5.9356354545,-4.9803995099,-3
 .7700083636\C,-5.8074223709,-3.7648163694,-3.1027329981\C,-4.662407779
 5,-3.5160489217,-2.3444878263\C,5.2365151411,-2.8165675062,-1.11355102
 5\C,5.2283609306,-3.7783927386,-2.1294288889\C,4.3680088811,-4.8777908
 253,-2.0550980894\C,3.5141440938,-5.0311828997,-0.9656761985\C,3.54227
 28618,-4.0897568395,0.0642112168\C,-3.7088784488,4.0733580479,0.926420
 3185\C,-3.9526490686,5.2042539054,0.1430417874\C,-5.1464730656,5.35268
 79641,-0.5538133595\C,-6.1172118224,4.342363145,-0.4739218051\C,-5.885
 557735,3.2008846132,0.2948242973\C,-5.8408925896,0.0555035954,2.671128
 3397\C,-6.8699213799,-0.4003598638,3.5012930493\C,-7.6070124905,0.5006
 503328,4.2752498325\C,-7.316062212,1.8617851089,4.2343393086\C,-6.2728
 99746,2.3178454531,3.4271195316\C,0.6430381155,5.7170858668,-1.2000347
 752\C,-0.0275748356,6.7677029502,-0.5732006836\C,0.5191912451,7.378132
 6992,0.5645072027\C,1.7411619019,6.927528264,1.0512218951\C,2.42580808
 83,5.8758885805,0.4382929149\C,4.484396446,2.7679062898,-0.9458687908\
 C,5.8649390561,2.5764051648,-0.8956425352\C,6.7292620589,3.6333930506,
 -1.1837415907\C,6.1949134239,4.8692911235,-1.5487753721\C,4.8151593537
 ,5.0613274744,-1.6293763416\H,1.2430284101,2.6181046101,0.3921765187\H
 ,-2.7461724554,1.2786717109,-0.1287753532\H,-3.3019210718,1.3633124696
 ,4.134437148\H,-1.0605548179,0.3645663661,4.4796783366\H,1.389137702,-
 0.6682655598,4.2855467021\H,3.5448042569,-1.6530733788,3.578718665\H,0
 .7757656353,1.1438759144,-4.3556544422\H,2.0608520463,3.1980051375,-3.
 7852702738\H,-0.6663197708,-1.0954010916,-4.39107331\H,-1.8428558405,-
 3.2141085143,-3.8866107686\H,2.4780379037,-1.1420270338,-0.5594169322\
 H,-1.525583878,-2.4414195654,0.3372352984\H,-4.1206975933,-5.611991173
 4,0.0426924885\H,-3.4542220128,-7.1167332694,1.8874652629\H,8.50322543
 13,-3.1778941338,2.7630312377\H,6.3915991848,-3.7283130592,1.584348110
 3\O,0.9703032693,-6.1264366758,1.2010190411\H,3.3776907966,5.534565173
 3,0.8294085602\H,2.1705765218,7.3989368289,1.931394073\O,-1.2232110489
 ,7.2771519805,-1.0089479186\H,-7.1147603096,-1.4558726186,3.5332153269
 \O,-5.0982612984,-0.7492668729,1.8607777231\H,-7.8820974408,2.56652106
 98,4.8365221956\H,-6.0244442826,3.3743123125,3.3950208099\O,-7.2578070
 044,4.5603462019,-1.1970422731\H,-5.3546905924,6.2323479289,-1.1542442
 681\H,-3.2024225876,5.9890049991,0.0968328116\H,-2.7817912834,3.979652
 8876,1.4806439777\H,3.8228147642,1.9437707859,-0.7026363212\H,6.252314
 6403,1.6005896698,-0.6138961986\H,7.806141987,3.4984842525,-1.13503798
 08\H,6.8345847197,5.7129654583,-1.7911388886\O,4.3613422092,6.31553680
 11,-1.9739872325\H,5.8733326094,-3.664662879,-2.9933055449\O,6.0080028
 106,-1.692698765,-1.1281483618\H,4.3683163594,-5.6063690094,-2.8614490
 375\H,2.8342967473,-5.8744964918,-0.8968313099\H,2.8819410118,-4.20422
 19517,0.9181193379\H,-4.5480074243,-2.5763651933,-1.8118847341\H,-6.59
 37580571,-3.0178795508,-3.158536734\H,-6.8245021169,-5.1938760919,-4.3
 573600657\H,-5.0284127193,-6.8728517259,-4.2338840243\O,-2.7052983533,
 -6.5363089335,-2.8624014536\H,8.8973232419,-0.872251109,3.6391040942\H
 ,-1.0823815413,-7.4004247226,2.5060051278\H,-8.4093375256,0.1276329419
 ,4.9059434053\H,-0.018441233,8.1955027492,1.0337083553\C,3.8035260352,
 6.4265390773,-3.2825765051\C,-5.2978951436,-2.152352064,1.9310629974\C
 ,-2.7892328069,-7.7931478646,-3.5136210283\C,6.9003790975,-1.500520610
 8,-2.2134288702\H,4.5381245987,6.138037784,-4.0467788794\H,3.539102239
 6,7.4785570794,-3.4113974909\H,2.9032376728,5.8115100309,-3.3914934526
 \H,-4.5710013236,-2.593474751,1.2469607807\H,-6.3113537785,-2.43344798
 38,1.6142002929\H,-5.1183929013,-2.5335971357,2.9446090783\H,-1.852095
 0505,-8.3054812162,-3.2897095836\H,-2.8900271252,-7.6789867964,-4.6012
 250225\H,-3.6290153405,-8.3896638406,-3.1337611274\H,7.4105749964,-0.5
 564019466,-2.0154888177\H,6.364772466,-1.4281636737,-3.1692994729\H,7.
 6410305591,-2.3086163125,-2.2739409306\H,5.0762693628,0.3320200723,2.0
 712504019\O,7.315215082,1.0965433965,3.4272067382\C,6.3746242846,2.147
 0366303,3.2599696691\H,5.4155283327,1.9101267263,3.7393739075\H,6.2015
 458809,2.3715464817,2.1995032816\H,6.8141247493,3.020355756,3.74599558
 77\C,1.4165499431,-6.9774653748,2.2452717247\H,2.5050688219,-6.8980505
 261,2.2503540003\H,1.1287435322,-8.0217469113,2.0655811715\H,1.0250027
 189,-6.6587012052,3.2201038262\H,0.0370192055,-4.6858337606,-0.6399566
 842\H,0.2313792777,5.2347934364,-2.0776100118\C,-1.7255411043,6.827781
 3223,-2.2594435254\H,-0.9959747831,6.9931342936,-3.0630981623\H,-2.619
 8989084,7.4231744286,-2.4534615544\H,-2.0017876473,5.7665158637,-2.229
 9172658\C,-8.2823794945,3.5822446673,-1.1460136672\H,-6.6181804368,2.4
 062403397,0.3575150806\H,-9.091055404,3.9622347151,-1.7736469914\H,-8.
 6544632547,3.4373931467,-0.122985158\H,-7.9406450877,2.6163284592,-1.5
 419367689\\Version=EM64L-G09RevA.02\State=1-A\HF=-3948.2863483\RMSD=3.
 840e-09\RMSF=2.975e-06\Dipole=-1.2386351,-2.6685371,-1.2958611\Quadrup
 ole=-2.0445513,-0.8935841,2.9381354,11.0009892,-8.8277288,-1.3472547\P
 G=C01 [X(C81H68N4O8)]\\@


 ASKING DUMB QUESTIONS IS EASIER THAN CORECTING DUMB MISTAKES.
 Job cpu time:  6 days 14 hours 49 minutes  8.7 seconds.
 File lengths (MBytes):  RWF=   1450 Int=      0 D2E=      0 Chk=    144 Scr=      1
 Normal termination of Gaussian 09 at Sat Mar 28 06:21:17 2015.
