 Entering Gaussian System, Link 0=g09
 Input=Spiro_Meta_Ortho_CATION.com
 Output=Spiro_Meta_Ortho_CATION.log
 Initial command:
 /opt/g09/l1.exe /work/jarvist/2014-07_SPIRO/2015-03_extra_one/Gau-48781.inp -scrdir=/work/jarvist/2014-07_SPIRO/2015-03_extra_one/
 Default is to use a total of   8 processors:
                                8 via shared-memory
                                1 via Linda
 Entering Link 1 = /opt/g09/l1.exe PID=     48783.
  
 Copyright (c) 1988,1990,1992,1993,1995,1998,2003,2009, Gaussian, Inc.
                  All Rights Reserved.
  
 This is part of the Gaussian(R) 09 program.  It is based on
 the Gaussian(R) 03 system (copyright 2003, Gaussian, Inc.),
 the Gaussian(R) 98 system (copyright 1998, Gaussian, Inc.),
 the Gaussian(R) 94 system (copyright 1995, Gaussian, Inc.),
 the Gaussian 92(TM) system (copyright 1992, Gaussian, Inc.),
 the Gaussian 90(TM) system (copyright 1990, Gaussian, Inc.),
 the Gaussian 88(TM) system (copyright 1988, Gaussian, Inc.),
 the Gaussian 86(TM) system (copyright 1986, Carnegie Mellon
 University), and the Gaussian 82(TM) system (copyright 1983,
 Carnegie Mellon University). Gaussian is a federally registered
 trademark of Gaussian, Inc.
  
 This software contains proprietary and confidential information,
 including trade secrets, belonging to Gaussian, Inc.
  
 This software is provided under written license and may be
 used, copied, transmitted, or stored only in accord with that
 written license.
  
 The following legend is applicable only to US Government
 contracts under FAR:
  
                    RESTRICTED RIGHTS LEGEND
  
 Use, reproduction and disclosure by the US Government is
 subject to restrictions as set forth in subparagraphs (a)
 and (c) of the Commercial Computer Software - Restricted
 Rights clause in FAR 52.227-19.
  
 Gaussian, Inc.
 340 Quinnipiac St., Bldg. 40, Wallingford CT 06492
  
  
 ---------------------------------------------------------------
 Warning -- This program may not be used in any manner that
 competes with the business of Gaussian, Inc. or will provide
 assistance to any competitor of Gaussian, Inc.  The licensee
 of this program is prohibited from giving any competitor of
 Gaussian, Inc. access to this program.  By using this program,
 the user acknowledges that Gaussian, Inc. is engaged in the
 business of creating and licensing software in the field of
 computational chemistry and represents and warrants to the
 licensee that it is not a competitor of Gaussian, Inc. and that
 it will not use this program in any manner prohibited above.
 ---------------------------------------------------------------
  

 Cite this work as:
 Gaussian 09, Revision A.02,
 M. J. Frisch, G. W. Trucks, H. B. Schlegel, G. E. Scuseria, 
 M. A. Robb, J. R. Cheeseman, G. Scalmani, V. Barone, B. Mennucci, 
 G. A. Petersson, H. Nakatsuji, M. Caricato, X. Li, H. P. Hratchian, 
 A. F. Izmaylov, J. Bloino, G. Zheng, J. L. Sonnenberg, M. Hada, 
 M. Ehara, K. Toyota, R. Fukuda, J. Hasegawa, M. Ishida, T. Nakajima, 
 Y. Honda, O. Kitao, H. Nakai, T. Vreven, J. A. Montgomery, Jr., 
 J. E. Peralta, F. Ogliaro, M. Bearpark, J. J. Heyd, E. Brothers, 
 K. N. Kudin, V. N. Staroverov, R. Kobayashi, J. Normand, 
 K. Raghavachari, A. Rendell, J. C. Burant, S. S. Iyengar, J. Tomasi, 
 M. Cossi, N. Rega, J. M. Millam, M. Klene, J. E. Knox, J. B. Cross, 
 V. Bakken, C. Adamo, J. Jaramillo, R. Gomperts, R. E. Stratmann, 
 O. Yazyev, A. J. Austin, R. Cammi, C. Pomelli, J. W. Ochterski, 
 R. L. Martin, K. Morokuma, V. G. Zakrzewski, G. A. Voth, 
 P. Salvador, J. J. Dannenberg, S. Dapprich, A. D. Daniels, 
 O. Farkas, J. B. Foresman, J. V. Ortiz, J. Cioslowski, 
 and D. J. Fox, Gaussian, Inc., Wallingford CT, 2009.
 
 ******************************************
 Gaussian 09:  EM64L-G09RevA.02 11-Jun-2009
                28-Mar-2015 
 ******************************************
 %Mem=8Gb
 %nproc=24
 Will use up to   24 processors via shared memory.
 Default route:  MaxDisk=100GB
 ------------------
 #p sp b3lyp/6-31g*
 ------------------
 1/38=1/1;
 2/12=2,17=6,18=5,40=1/2;
 3/5=1,6=6,7=1,11=2,16=1,25=1,30=1,74=-5/1,2,3;
 4//1;
 5/5=2,38=5/2;
 6/7=2,8=2,9=2,10=2,28=1/1;
 99/5=1,9=1/99;
 Leave Link    1 at Sat Mar 28 19:11:06 2015, MaxMem= 1073741824 cpu:       1.5
 (Enter /opt/g09/l101.exe)
 ----------------------------------
 B3lyp auto opt job - neutral state
 ----------------------------------
 Symbolic Z-matrix:
 Charge =  1 Multiplicity = 2
 C                    -0.09439   0.07729   0.00928 
 C                    -0.96536   0.78644   1.05147 
 C                    -0.55195   0.44034   2.35632 
 C                     0.60227  -0.45589   2.2662 
 C                     0.87806  -0.70202   0.90874 
 C                    -0.87486  -0.8223   -0.95453 
 C                    -0.54994  -0.51987  -2.29078 
 C                     0.43916   0.56175  -2.30074 
 C                     0.67354   0.96913  -0.97146 
 C                    -1.78797  -1.8172   -0.64387 
 C                    -2.39254  -2.54343  -1.68679 
 C                    -2.06647  -2.24128  -3.02234 
 C                    -1.15595  -1.233    -3.32769 
 C                     1.40632  -1.04349   3.24656 
 C                     2.46552  -1.86447   2.86537 
 C                     2.74664  -2.10132   1.50558 
 C                     1.93428  -1.50933   0.52038 
 C                    -2.06353   1.6042    0.84229 
 C                    -2.7763    2.09341   1.95335 
 C                    -2.35736   1.75792   3.25089 
 C                    -1.2531    0.93228   3.45742 
 C                     1.15393   1.14932  -3.3473 
 C                     2.11043   2.12241  -3.05428 
 C                     2.33811   2.53035  -1.73231 
 C                     1.59584   1.96332  -0.68351 
 N                    -3.3451   -3.55976  -1.40774 
 N                     3.82578  -2.93608   1.11864 
 N                    -3.93601   2.89407   1.75991 
 N                     3.37597   3.4836   -1.44986 
 C                     4.70932   2.99523  -1.38003 
 C                    -3.88295   4.04751   0.93449 
 C                     2.99235   4.69277  -0.80285 
 C                    -5.06572   2.6839    2.59832 
 C                    -3.17166  -4.4525   -0.32202 
 C                    -4.55089  -3.58734  -2.16521 
 C                     5.06376  -2.90597   1.80955 
 C                     3.60943  -3.89448   0.08733 
 C                     5.78976  -4.08369   2.02276 
 C                     7.01929  -4.02444   2.68303 
 C                     7.53148  -2.82065   3.15055 
 C                     6.80087  -1.64047   2.93954 
 C                     5.57858  -1.67793   2.26624 
 C                    -4.28319  -4.90168   0.41556 
 C                    -4.096    -5.78876   1.46906 
 C                    -2.82381  -6.24039   1.83141 
 C                    -1.72211  -5.78817   1.09529 
 C                    -1.89446  -4.90841   0.02229 
 C                    -4.95055  -4.7671   -2.84096 
 C                    -6.14109  -4.77422  -3.57553 
 C                    -6.91828  -3.61634  -3.671 
 C                    -6.51999  -2.44604  -3.02983 
 C                    -5.34598  -2.44289  -2.27513 
 C                     4.46323  -3.94374  -1.04232 
 C                     4.23752  -4.90099  -2.03726 
 C                     3.15379  -5.77884  -1.94077 
 C                     2.29061  -5.71451  -0.84979 
 C                     2.53129  -4.7813    0.15964 
 C                    -2.71294   4.81054   0.83325 
 C                    -2.70066   5.9503    0.02527 
 C                    -3.83343   6.34645  -0.67669 
 C                    -5.00488   5.58016  -0.57675 
 C                    -5.03137   4.43247   0.2168 
 C                    -5.68225   1.40797   2.66036 
 C                    -6.78447   1.21108   3.49835 
 C                    -7.29953   2.27018   4.25145 
 C                    -6.71234   3.53088   4.18174 
 C                    -5.59623   3.7253    3.3667 
 C                     1.88939   5.39589  -1.32054 
 C                     1.47206   6.58281  -0.71764 
 C                     2.14478   7.08002   0.40761 
 C                     3.23691   6.37862   0.90604 
 C                     3.66774   5.18787   0.31709 
 C                     4.97664   1.67003  -0.99624 
 C                     6.2798    1.17642  -0.9395 
 C                     7.35727   2.00748  -1.24879 
 C                     7.11102   3.32336  -1.64128 
 C                     5.80866   3.81667  -1.7284 
 H                     1.78774   2.27593   0.33908 
 H                    -2.40135   1.8496   -0.15985 
 H                    -2.91095   2.14724   4.09958 
 H                    -0.94787   0.68115   4.47015 
 H                     1.209    -0.87618   4.30256 
 H                     3.08838  -2.33205   3.62086 
 H                     0.98856   0.84198  -4.37671 
 H                     2.70134   2.56927  -3.84846 
 H                    -0.91691  -1.01928  -4.36641 
 H                    -2.53495  -2.81076  -3.81849 
 H                     2.14967  -1.68444  -0.52917 
 H                    -2.04014  -2.03823   0.38829 
 H                    -5.27817  -4.55533   0.15757 
 H                    -4.95851  -6.13106   2.03547 
 H                     7.57901  -4.94193   2.84682 
 H                     5.39415  -5.03235   1.6766 
 O                    -0.42673  -6.16793   1.33556 
 H                     4.52067   4.65119   0.71712 
 H                     3.76341   6.76103   1.7766 
 O                     0.41889   7.33677  -1.16634 
 H                    -7.25855   0.23774   3.55257 
 O                    -5.14043   0.44065   1.86882 
 H                    -7.10498   4.35686   4.76762 
 H                    -5.11841   4.69876   3.31229 
 O                    -6.07032   6.03165  -1.30638 
 H                    -3.84199   7.23735  -1.29629 
 H                    -1.7944    6.54669  -0.03652 
 H                    -1.82841   4.5242    1.39097 
 H                     4.14861   1.01969  -0.73647 
 H                     6.44055   0.14502  -0.63613 
 H                     8.37705   1.63675  -1.19532 
 H                     7.92206   3.99765  -1.90064 
 O                     5.64506   5.13286  -2.10073 
 H                     4.88892  -4.95254  -2.90226 
 O                     5.46599  -3.02094  -1.07977 
 H                     2.98902  -6.50619  -2.73124 
 H                     1.43996  -6.38319  -0.76398 
 H                     1.86473  -4.72725   1.01466 
 H                    -5.02315  -1.54126  -1.76269 
 H                    -7.12001  -1.54384  -3.10308 
 H                    -7.83419  -3.6386   -4.25516 
 H                    -6.45763  -5.67299  -4.09244 
 O                    -4.11373  -5.83407  -2.72448 
 H                     8.48034  -2.76417   3.67373 
 H                    -2.70785  -6.92356   2.66411 
 H                    -8.16289   2.09917   4.88863 
 H                     1.80454   8.00659   0.85816 
 C                     5.12201   5.33753  -3.41237 
 C                    -5.64788  -0.88068   1.96895 
 C                    -4.47801  -7.05412  -3.34863 
 C                     6.37537  -3.05598  -2.16738 
 H                     5.77134   4.87611  -4.1689 
 H                     5.09858   6.41903  -3.56428 
 H                     4.10685   4.93671  -3.50959 
 H                    -5.03987  -1.48741   1.29577 
 H                    -6.69949  -0.93526   1.65645 
 H                    -5.55482  -1.27061   2.99078 
 H                    -3.67812  -7.75774  -3.11211 
 H                    -4.55417  -6.94362  -4.43861 
 H                    -5.42853  -7.43994  -2.95747 
 H                     7.08397  -2.2455   -1.98893 
 H                     5.86644  -2.88638  -3.12552 
 H                     6.91685  -4.01007  -2.20919 
 H                     5.01946  -0.77144   2.07366 
 O                     7.37675  -0.49698   3.41673 
 C                     6.69375   0.73309   3.22528 
 H                     5.70747   0.72647   3.708 
 H                     6.57183   0.96784   2.15992 
 H                     7.31854   1.49651   3.69315 
 C                    -0.17837  -7.07456   2.39867 
 H                     0.90044  -7.23995   2.40394 
 H                    -0.69249  -8.03188   2.24101 
 H                    -0.48589  -6.65569   3.36573 
 H                    -1.02076  -4.5951   -0.53763 
 H                     1.37777   4.99896  -2.18824 
 C                    -0.17493   6.98419  -2.40774 
 H                     0.57063   6.96536  -3.2135 
 H                    -0.9145    7.75985  -2.61609 
 H                    -0.68092   6.01221  -2.35584 
 C                    -7.28714   5.30815  -1.23609 
 H                    -5.92263   3.82287   0.29531 
 H                    -7.99259   5.8455   -1.87316 
 H                    -7.67898   5.27189  -0.21083 
 H                    -7.17077   4.2821   -1.61052 
 
 NAtoms=    161 NQM=    161 NQMF=      0 NMic=      0 NMicF=      0 NTot=    161.
                    Isotopes and Nuclear Properties:
 (Nuclear quadrupole moments (NQMom) in fm**2, nuclear magnetic moments (NMagM)
  in nuclear magnetons)

  Atom         1           2           3           4           5           6           7           8           9          10
 IAtWgt=          12          12          12          12          12          12          12          12          12          12
 AtmWgt=  12.0000000  12.0000000  12.0000000  12.0000000  12.0000000  12.0000000  12.0000000  12.0000000  12.0000000  12.0000000
 NucSpn=           0           0           0           0           0           0           0           0           0           0
 AtZEff=   0.0000000   0.0000000   0.0000000   0.0000000   0.0000000   0.0000000   0.0000000   0.0000000   0.0000000   0.0000000
 NQMom=    0.0000000   0.0000000   0.0000000   0.0000000   0.0000000   0.0000000   0.0000000   0.0000000   0.0000000   0.0000000
 NMagM=    0.0000000   0.0000000   0.0000000   0.0000000   0.0000000   0.0000000   0.0000000   0.0000000   0.0000000   0.0000000

  Atom        11          12          13          14          15          16          17          18          19          20
 IAtWgt=          12          12          12          12          12          12          12          12          12          12
 AtmWgt=  12.0000000  12.0000000  12.0000000  12.0000000  12.0000000  12.0000000  12.0000000  12.0000000  12.0000000  12.0000000
 NucSpn=           0           0           0           0           0           0           0           0           0           0
 AtZEff=   0.0000000   0.0000000   0.0000000   0.0000000   0.0000000   0.0000000   0.0000000   0.0000000   0.0000000   0.0000000
 NQMom=    0.0000000   0.0000000   0.0000000   0.0000000   0.0000000   0.0000000   0.0000000   0.0000000   0.0000000   0.0000000
 NMagM=    0.0000000   0.0000000   0.0000000   0.0000000   0.0000000   0.0000000   0.0000000   0.0000000   0.0000000   0.0000000

  Atom        21          22          23          24          25          26          27          28          29          30
 IAtWgt=          12          12          12          12          12          14          14          14          14          12
 AtmWgt=  12.0000000  12.0000000  12.0000000  12.0000000  12.0000000  14.0030740  14.0030740  14.0030740  14.0030740  12.0000000
 NucSpn=           0           0           0           0           0           2           2           2           2           0
 AtZEff=   0.0000000   0.0000000   0.0000000   0.0000000   0.0000000   0.0000000   0.0000000   0.0000000   0.0000000   0.0000000
 NQMom=    0.0000000   0.0000000   0.0000000   0.0000000   0.0000000   2.0440000   2.0440000   2.0440000   2.0440000   0.0000000
 NMagM=    0.0000000   0.0000000   0.0000000   0.0000000   0.0000000   0.4037610   0.4037610   0.4037610   0.4037610   0.0000000

  Atom        31          32          33          34          35          36          37          38          39          40
 IAtWgt=          12          12          12          12          12          12          12          12          12          12
 AtmWgt=  12.0000000  12.0000000  12.0000000  12.0000000  12.0000000  12.0000000  12.0000000  12.0000000  12.0000000  12.0000000
 NucSpn=           0           0           0           0           0           0           0           0           0           0
 AtZEff=   0.0000000   0.0000000   0.0000000   0.0000000   0.0000000   0.0000000   0.0000000   0.0000000   0.0000000   0.0000000
 NQMom=    0.0000000   0.0000000   0.0000000   0.0000000   0.0000000   0.0000000   0.0000000   0.0000000   0.0000000   0.0000000
 NMagM=    0.0000000   0.0000000   0.0000000   0.0000000   0.0000000   0.0000000   0.0000000   0.0000000   0.0000000   0.0000000

  Atom        41          42          43          44          45          46          47          48          49          50
 IAtWgt=          12          12          12          12          12          12          12          12          12          12
 AtmWgt=  12.0000000  12.0000000  12.0000000  12.0000000  12.0000000  12.0000000  12.0000000  12.0000000  12.0000000  12.0000000
 NucSpn=           0           0           0           0           0           0           0           0           0           0
 AtZEff=   0.0000000   0.0000000   0.0000000   0.0000000   0.0000000   0.0000000   0.0000000   0.0000000   0.0000000   0.0000000
 NQMom=    0.0000000   0.0000000   0.0000000   0.0000000   0.0000000   0.0000000   0.0000000   0.0000000   0.0000000   0.0000000
 NMagM=    0.0000000   0.0000000   0.0000000   0.0000000   0.0000000   0.0000000   0.0000000   0.0000000   0.0000000   0.0000000

  Atom        51          52          53          54          55          56          57          58          59          60
 IAtWgt=          12          12          12          12          12          12          12          12          12          12
 AtmWgt=  12.0000000  12.0000000  12.0000000  12.0000000  12.0000000  12.0000000  12.0000000  12.0000000  12.0000000  12.0000000
 NucSpn=           0           0           0           0           0           0           0           0           0           0
 AtZEff=   0.0000000   0.0000000   0.0000000   0.0000000   0.0000000   0.0000000   0.0000000   0.0000000   0.0000000   0.0000000
 NQMom=    0.0000000   0.0000000   0.0000000   0.0000000   0.0000000   0.0000000   0.0000000   0.0000000   0.0000000   0.0000000
 NMagM=    0.0000000   0.0000000   0.0000000   0.0000000   0.0000000   0.0000000   0.0000000   0.0000000   0.0000000   0.0000000

  Atom        61          62          63          64          65          66          67          68          69          70
 IAtWgt=          12          12          12          12          12          12          12          12          12          12
 AtmWgt=  12.0000000  12.0000000  12.0000000  12.0000000  12.0000000  12.0000000  12.0000000  12.0000000  12.0000000  12.0000000
 NucSpn=           0           0           0           0           0           0           0           0           0           0
 AtZEff=   0.0000000   0.0000000   0.0000000   0.0000000   0.0000000   0.0000000   0.0000000   0.0000000   0.0000000   0.0000000
 NQMom=    0.0000000   0.0000000   0.0000000   0.0000000   0.0000000   0.0000000   0.0000000   0.0000000   0.0000000   0.0000000
 NMagM=    0.0000000   0.0000000   0.0000000   0.0000000   0.0000000   0.0000000   0.0000000   0.0000000   0.0000000   0.0000000

  Atom        71          72          73          74          75          76          77          78          79          80
 IAtWgt=          12          12          12          12          12          12          12           1           1           1
 AtmWgt=  12.0000000  12.0000000  12.0000000  12.0000000  12.0000000  12.0000000  12.0000000   1.0078250   1.0078250   1.0078250
 NucSpn=           0           0           0           0           0           0           0           1           1           1
 AtZEff=   0.0000000   0.0000000   0.0000000   0.0000000   0.0000000   0.0000000   0.0000000   0.0000000   0.0000000   0.0000000
 NQMom=    0.0000000   0.0000000   0.0000000   0.0000000   0.0000000   0.0000000   0.0000000   0.0000000   0.0000000   0.0000000
 NMagM=    0.0000000   0.0000000   0.0000000   0.0000000   0.0000000   0.0000000   0.0000000   2.7928460   2.7928460   2.7928460

  Atom        81          82          83          84          85          86          87          88          89          90
 IAtWgt=           1           1           1           1           1           1           1           1           1           1
 AtmWgt=   1.0078250   1.0078250   1.0078250   1.0078250   1.0078250   1.0078250   1.0078250   1.0078250   1.0078250   1.0078250
 NucSpn=           1           1           1           1           1           1           1           1           1           1
 AtZEff=   0.0000000   0.0000000   0.0000000   0.0000000   0.0000000   0.0000000   0.0000000   0.0000000   0.0000000   0.0000000
 NQMom=    0.0000000   0.0000000   0.0000000   0.0000000   0.0000000   0.0000000   0.0000000   0.0000000   0.0000000   0.0000000
 NMagM=    2.7928460   2.7928460   2.7928460   2.7928460   2.7928460   2.7928460   2.7928460   2.7928460   2.7928460   2.7928460

  Atom        91          92          93          94          95          96          97          98          99         100
 IAtWgt=           1           1           1          16           1           1          16           1          16           1
 AtmWgt=   1.0078250   1.0078250   1.0078250  15.9949146   1.0078250   1.0078250  15.9949146   1.0078250  15.9949146   1.0078250
 NucSpn=           1           1           1           0           1           1           0           1           0           1
 AtZEff=   0.0000000   0.0000000   0.0000000   0.0000000   0.0000000   0.0000000   0.0000000   0.0000000   0.0000000   0.0000000
 NQMom=    0.0000000   0.0000000   0.0000000   0.0000000   0.0000000   0.0000000   0.0000000   0.0000000   0.0000000   0.0000000
 NMagM=    2.7928460   2.7928460   2.7928460   0.0000000   2.7928460   2.7928460   0.0000000   2.7928460   0.0000000   2.7928460

  Atom       101         102         103         104         105         106         107         108         109         110
 IAtWgt=           1          16           1           1           1           1           1           1           1          16
 AtmWgt=   1.0078250  15.9949146   1.0078250   1.0078250   1.0078250   1.0078250   1.0078250   1.0078250   1.0078250  15.9949146
 NucSpn=           1           0           1           1           1           1           1           1           1           0
 AtZEff=   0.0000000   0.0000000   0.0000000   0.0000000   0.0000000   0.0000000   0.0000000   0.0000000   0.0000000   0.0000000
 NQMom=    0.0000000   0.0000000   0.0000000   0.0000000   0.0000000   0.0000000   0.0000000   0.0000000   0.0000000   0.0000000
 NMagM=    2.7928460   0.0000000   2.7928460   2.7928460   2.7928460   2.7928460   2.7928460   2.7928460   2.7928460   0.0000000

  Atom       111         112         113         114         115         116         117         118         119         120
 IAtWgt=           1          16           1           1           1           1           1           1           1          16
 AtmWgt=   1.0078250  15.9949146   1.0078250   1.0078250   1.0078250   1.0078250   1.0078250   1.0078250   1.0078250  15.9949146
 NucSpn=           1           0           1           1           1           1           1           1           1           0
 AtZEff=   0.0000000   0.0000000   0.0000000   0.0000000   0.0000000   0.0000000   0.0000000   0.0000000   0.0000000   0.0000000
 NQMom=    0.0000000   0.0000000   0.0000000   0.0000000   0.0000000   0.0000000   0.0000000   0.0000000   0.0000000   0.0000000
 NMagM=    2.7928460   0.0000000   2.7928460   2.7928460   2.7928460   2.7928460   2.7928460   2.7928460   2.7928460   0.0000000

  Atom       121         122         123         124         125         126         127         128         129         130
 IAtWgt=           1           1           1           1          12          12          12          12           1           1
 AtmWgt=   1.0078250   1.0078250   1.0078250   1.0078250  12.0000000  12.0000000  12.0000000  12.0000000   1.0078250   1.0078250
 NucSpn=           1           1           1           1           0           0           0           0           1           1
 AtZEff=   0.0000000   0.0000000   0.0000000   0.0000000   0.0000000   0.0000000   0.0000000   0.0000000   0.0000000   0.0000000
 NQMom=    0.0000000   0.0000000   0.0000000   0.0000000   0.0000000   0.0000000   0.0000000   0.0000000   0.0000000   0.0000000
 NMagM=    2.7928460   2.7928460   2.7928460   2.7928460   0.0000000   0.0000000   0.0000000   0.0000000   2.7928460   2.7928460

  Atom       131         132         133         134         135         136         137         138         139         140
 IAtWgt=           1           1           1           1           1           1           1           1           1           1
 AtmWgt=   1.0078250   1.0078250   1.0078250   1.0078250   1.0078250   1.0078250   1.0078250   1.0078250   1.0078250   1.0078250
 NucSpn=           1           1           1           1           1           1           1           1           1           1
 AtZEff=   0.0000000   0.0000000   0.0000000   0.0000000   0.0000000   0.0000000   0.0000000   0.0000000   0.0000000   0.0000000
 NQMom=    0.0000000   0.0000000   0.0000000   0.0000000   0.0000000   0.0000000   0.0000000   0.0000000   0.0000000   0.0000000
 NMagM=    2.7928460   2.7928460   2.7928460   2.7928460   2.7928460   2.7928460   2.7928460   2.7928460   2.7928460   2.7928460

  Atom       141         142         143         144         145         146         147         148         149         150
 IAtWgt=           1          16          12           1           1           1          12           1           1           1
 AtmWgt=   1.0078250  15.9949146  12.0000000   1.0078250   1.0078250   1.0078250  12.0000000   1.0078250   1.0078250   1.0078250
 NucSpn=           1           0           0           1           1           1           0           1           1           1
 AtZEff=   0.0000000   0.0000000   0.0000000   0.0000000   0.0000000   0.0000000   0.0000000   0.0000000   0.0000000   0.0000000
 NQMom=    0.0000000   0.0000000   0.0000000   0.0000000   0.0000000   0.0000000   0.0000000   0.0000000   0.0000000   0.0000000
 NMagM=    2.7928460   0.0000000   0.0000000   2.7928460   2.7928460   2.7928460   0.0000000   2.7928460   2.7928460   2.7928460

  Atom       151         152         153         154         155         156         157         158         159         160
 IAtWgt=           1           1          12           1           1           1          12           1           1           1
 AtmWgt=   1.0078250   1.0078250  12.0000000   1.0078250   1.0078250   1.0078250  12.0000000   1.0078250   1.0078250   1.0078250
 NucSpn=           1           1           0           1           1           1           0           1           1           1
 AtZEff=   0.0000000   0.0000000   0.0000000   0.0000000   0.0000000   0.0000000   0.0000000   0.0000000   0.0000000   0.0000000
 NQMom=    0.0000000   0.0000000   0.0000000   0.0000000   0.0000000   0.0000000   0.0000000   0.0000000   0.0000000   0.0000000
 NMagM=    2.7928460   2.7928460   0.0000000   2.7928460   2.7928460   2.7928460   0.0000000   2.7928460   2.7928460   2.7928460

  Atom       161
 IAtWgt=           1
 AtmWgt=   1.0078250
 NucSpn=           1
 AtZEff=   0.0000000
 NQMom=    0.0000000
 NMagM=    2.7928460
 Leave Link  101 at Sat Mar 28 19:11:06 2015, MaxMem= 1073741824 cpu:       2.9
 (Enter /opt/g09/l202.exe)
 Stoichiometry    C81H68N4O8(1+,2)
 Framework group  C1[X(C81H68N4O8)]
 Deg. of freedom   477
 Full point group                 C1      NOp   1
 Largest Abelian subgroup         C1      NOp   1
 Largest concise Abelian subgroup C1      NOp   1
                         Standard orientation:                         
 ---------------------------------------------------------------------
 Center     Atomic      Atomic             Coordinates (Angstroms)
 Number     Number       Type             X           Y           Z
 ---------------------------------------------------------------------
      1          6           0       -0.094385    0.077291    0.009279
      2          6           0       -0.965358    0.786443    1.051469
      3          6           0       -0.551952    0.440338    2.356318
      4          6           0        0.602265   -0.455890    2.266202
      5          6           0        0.878063   -0.702021    0.908739
      6          6           0       -0.874855   -0.822297   -0.954533
      7          6           0       -0.549938   -0.519870   -2.290784
      8          6           0        0.439161    0.561745   -2.300743
      9          6           0        0.673540    0.969126   -0.971461
     10          6           0       -1.787968   -1.817198   -0.643873
     11          6           0       -2.392537   -2.543434   -1.686786
     12          6           0       -2.066472   -2.241277   -3.022344
     13          6           0       -1.155945   -1.232995   -3.327688
     14          6           0        1.406323   -1.043489    3.246563
     15          6           0        2.465520   -1.864466    2.865374
     16          6           0        2.746643   -2.101315    1.505578
     17          6           0        1.934279   -1.509331    0.520375
     18          6           0       -2.063526    1.604196    0.842285
     19          6           0       -2.776302    2.093407    1.953352
     20          6           0       -2.357363    1.757920    3.250887
     21          6           0       -1.253101    0.932276    3.457420
     22          6           0        1.153930    1.149322   -3.347300
     23          6           0        2.110426    2.122410   -3.054279
     24          6           0        2.338108    2.530354   -1.732311
     25          6           0        1.595839    1.963322   -0.683506
     26          7           0       -3.345104   -3.559764   -1.407742
     27          7           0        3.825779   -2.936084    1.118635
     28          7           0       -3.936011    2.894069    1.759912
     29          7           0        3.375965    3.483602   -1.449860
     30          6           0        4.709323    2.995231   -1.380028
     31          6           0       -3.882951    4.047512    0.934487
     32          6           0        2.992352    4.692769   -0.802850
     33          6           0       -5.065721    2.683900    2.598320
     34          6           0       -3.171663   -4.452499   -0.322016
     35          6           0       -4.550886   -3.587335   -2.165212
     36          6           0        5.063756   -2.905968    1.809546
     37          6           0        3.609428   -3.894477    0.087334
     38          6           0        5.789758   -4.083692    2.022755
     39          6           0        7.019288   -4.024442    2.683027
     40          6           0        7.531482   -2.820650    3.150545
     41          6           0        6.800871   -1.640469    2.939544
     42          6           0        5.578580   -1.677930    2.266240
     43          6           0       -4.283192   -4.901680    0.415562
     44          6           0       -4.095997   -5.788757    1.469058
     45          6           0       -2.823811   -6.240387    1.831405
     46          6           0       -1.722112   -5.788168    1.095286
     47          6           0       -1.894460   -4.908406    0.022291
     48          6           0       -4.950550   -4.767097   -2.840962
     49          6           0       -6.141087   -4.774221   -3.575533
     50          6           0       -6.918275   -3.616341   -3.670999
     51          6           0       -6.519992   -2.446036   -3.029833
     52          6           0       -5.345985   -2.442888   -2.275129
     53          6           0        4.463233   -3.943743   -1.042318
     54          6           0        4.237518   -4.900990   -2.037261
     55          6           0        3.153787   -5.778842   -1.940771
     56          6           0        2.290614   -5.714508   -0.849786
     57          6           0        2.531292   -4.781298    0.159638
     58          6           0       -2.712937    4.810540    0.833245
     59          6           0       -2.700664    5.950304    0.025273
     60          6           0       -3.833433    6.346453   -0.676693
     61          6           0       -5.004875    5.580159   -0.576753
     62          6           0       -5.031365    4.432472    0.216797
     63          6           0       -5.682253    1.407972    2.660356
     64          6           0       -6.784469    1.211076    3.498353
     65          6           0       -7.299529    2.270179    4.251445
     66          6           0       -6.712338    3.530878    4.181739
     67          6           0       -5.596230    3.725303    3.366702
     68          6           0        1.889391    5.395887   -1.320537
     69          6           0        1.472057    6.582810   -0.717640
     70          6           0        2.144776    7.080023    0.407609
     71          6           0        3.236906    6.378619    0.906040
     72          6           0        3.667735    5.187866    0.317091
     73          6           0        4.976641    1.670029   -0.996239
     74          6           0        6.279800    1.176420   -0.939498
     75          6           0        7.357274    2.007484   -1.248787
     76          6           0        7.111025    3.323362   -1.641279
     77          6           0        5.808660    3.816667   -1.728398
     78          1           0        1.787741    2.275927    0.339080
     79          1           0       -2.401353    1.849596   -0.159849
     80          1           0       -2.910947    2.147236    4.099579
     81          1           0       -0.947870    0.681148    4.470147
     82          1           0        1.208998   -0.876177    4.302564
     83          1           0        3.088375   -2.332052    3.620858
     84          1           0        0.988559    0.841976   -4.376710
     85          1           0        2.701344    2.569270   -3.848456
     86          1           0       -0.916914   -1.019285   -4.366410
     87          1           0       -2.534953   -2.810757   -3.818488
     88          1           0        2.149668   -1.684441   -0.529172
     89          1           0       -2.040141   -2.038226    0.388285
     90          1           0       -5.278171   -4.555334    0.157570
     91          1           0       -4.958511   -6.131061    2.035475
     92          1           0        7.579005   -4.941932    2.846824
     93          1           0        5.394146   -5.032354    1.676595
     94          8           0       -0.426725   -6.167933    1.335563
     95          1           0        4.520674    4.651186    0.717122
     96          1           0        3.763413    6.761029    1.776602
     97          8           0        0.418885    7.336773   -1.166336
     98          1           0       -7.258547    0.237740    3.552571
     99          8           0       -5.140433    0.440646    1.868817
    100          1           0       -7.104983    4.356859    4.767621
    101          1           0       -5.118414    4.698757    3.312294
    102          8           0       -6.070321    6.031648   -1.306384
    103          1           0       -3.841992    7.237353   -1.296289
    104          1           0       -1.794400    6.546691   -0.036519
    105          1           0       -1.828411    4.524198    1.390971
    106          1           0        4.148612    1.019692   -0.736468
    107          1           0        6.440554    0.145021   -0.636131
    108          1           0        8.377050    1.636754   -1.195316
    109          1           0        7.922059    3.997648   -1.900641
    110          8           0        5.645061    5.132857   -2.100726
    111          1           0        4.888916   -4.952543   -2.902263
    112          8           0        5.465986   -3.020937   -1.079771
    113          1           0        2.989015   -6.506187   -2.731244
    114          1           0        1.439958   -6.383187   -0.763980
    115          1           0        1.864726   -4.727247    1.014663
    116          1           0       -5.023146   -1.541258   -1.762686
    117          1           0       -7.120013   -1.543837   -3.103076
    118          1           0       -7.834187   -3.638599   -4.255164
    119          1           0       -6.457625   -5.672989   -4.092436
    120          8           0       -4.113733   -5.834071   -2.724479
    121          1           0        8.480338   -2.764174    3.673729
    122          1           0       -2.707853   -6.923563    2.664106
    123          1           0       -8.162892    2.099169    4.888627
    124          1           0        1.804536    8.006591    0.858164
    125          6           0        5.122009    5.337529   -3.412370
    126          6           0       -5.647879   -0.880684    1.968952
    127          6           0       -4.478009   -7.054119   -3.348628
    128          6           0        6.375366   -3.055977   -2.167384
    129          1           0        5.771336    4.876113   -4.168904
    130          1           0        5.098584    6.419025   -3.564275
    131          1           0        4.106854    4.936714   -3.509585
    132          1           0       -5.039867   -1.487406    1.295774
    133          1           0       -6.699487   -0.935257    1.656453
    134          1           0       -5.554817   -1.270613    2.990784
    135          1           0       -3.678120   -7.757741   -3.112106
    136          1           0       -4.554172   -6.943624   -4.438612
    137          1           0       -5.428533   -7.439944   -2.957473
    138          1           0        7.083970   -2.245498   -1.988933
    139          1           0        5.866438   -2.886382   -3.125521
    140          1           0        6.916847   -4.010071   -2.209191
    141          1           0        5.019462   -0.771436    2.073660
    142          8           0        7.376753   -0.496979    3.416732
    143          6           0        6.693751    0.733090    3.225277
    144          1           0        5.707469    0.726471    3.708002
    145          1           0        6.571834    0.967835    2.159922
    146          1           0        7.318541    1.496505    3.693148
    147          6           0       -0.178370   -7.074555    2.398674
    148          1           0        0.900436   -7.239945    2.403939
    149          1           0       -0.692485   -8.031882    2.241012
    150          1           0       -0.485889   -6.655692    3.365733
    151          1           0       -1.020765   -4.595096   -0.537629
    152          1           0        1.377772    4.998964   -2.188238
    153          6           0       -0.174933    6.984194   -2.407737
    154          1           0        0.570633    6.965362   -3.213496
    155          1           0       -0.914495    7.759855   -2.616087
    156          1           0       -0.680918    6.012209   -2.355845
    157          6           0       -7.287139    5.308152   -1.236087
    158          1           0       -5.922626    3.822869    0.295310
    159          1           0       -7.992590    5.845502   -1.873164
    160          1           0       -7.678980    5.271885   -0.210826
    161          1           0       -7.170774    4.282097   -1.610523
 ---------------------------------------------------------------------
 Rotational constants (GHZ):      0.0200607      0.0175617      0.0118556
 Leave Link  202 at Sat Mar 28 19:11:06 2015, MaxMem= 1073741824 cpu:       2.6
 (Enter /opt/g09/l301.exe)
 Standard basis: 6-31G(d) (6D, 7F)
 Ernie: Thresh=  0.10000D-02 Tol=  0.10000D-05 Strict=F.
 There are  1531 symmetry adapted basis functions of A   symmetry.
 Integral buffers will be    131072 words long.
 Raffenetti 2 integral format.
 Two-electron integral symmetry is turned on.
  1531 basis functions,  2876 primitive gaussians,  1531 cartesian basis functions
   323 alpha electrons      322 beta electrons
       nuclear repulsion energy     17151.4688839817 Hartrees.
 IExCor=  402 DFT=T Ex+Corr=B3LYP ExCW=0 ScaHFX=  0.200000
 ScaDFX=  0.800000  0.720000  1.000000  0.810000 ScalE2=  1.000000  1.000000
 IRadAn=      0 IRanWt=     -1 IRanGd=            0 ICorTp=0
 NAtoms=  161 NActive=  161 NUniq=  161 SFac= 7.50D-01 NAtFMM=   80 NAOKFM=T Big=T
 Leave Link  301 at Sat Mar 28 19:11:07 2015, MaxMem= 1073741824 cpu:       1.8
 (Enter /opt/g09/l302.exe)
 NPDir=0 NMtPBC=     1 NCelOv=     1 NCel=       1 NClECP=     1 NCelD=      1
         NCelK=      1 NCelE2=     1 NClLst=     1 CellRange=     0.0.
 One-electron integrals computed using PRISM.
 NBasis=  1531 RedAO= T  NBF=  1531
 NBsUse=  1531 1.00D-06 NBFU=  1531
 Precomputing XC quadrature grid using
 IXCGrd= 2 IRadAn=           0 IRanWt=          -1 IRanGd=           0 AccXCQ= 1.00D-10.
 NRdTot=   10473 NPtTot=     1341662 NUsed=     1417079 NTot=     1417111
 NSgBfM=  1135  1176  1190  1205  1219 NAtAll=   161   161.
 Leave Link  302 at Sat Mar 28 19:11:51 2015, MaxMem= 1073741824 cpu:     530.9
 (Enter /opt/g09/l303.exe)
 DipDrv:  MaxL=1.
 Leave Link  303 at Sat Mar 28 19:11:52 2015, MaxMem= 1073741824 cpu:      19.0
 (Enter /opt/g09/l401.exe)
 Harris functional with IExCor=  402 diagonalized for initial guess.
 ExpMin= 1.61D-01 ExpMax= 5.48D+03 ExpMxC= 8.25D+02 IAcc=1 IRadAn=         1 AccDes= 0.00D+00
 HarFok:  IExCor=  402 AccDes= 0.00D+00 IRadAn=         1 IDoV= 1
 ScaDFX=  1.000000  1.000000  1.000000  1.000000
 FoFCou: FMM=F IPFlag=           0 FMFlag=      100000 FMFlg1=        2001
         NFxFlg=           0 DoJE=T BraDBF=F KetDBF=T FulRan=T
         Omega=  0.000000  0.000000  1.000000  0.000000  0.000000 ICntrl=     500 IOpCl=  0
         NMat0=    1 NMatS0=    1 NMatT0=    0 NMatD0=    1 NMtDS0=    0 NMtDT0=    0
         I1Cent=           4 NGrid=           0.
 Petite list used in FoFCou.
 Harris En= -3948.33459872667    
 Initial guess orbital symmetries:
 Alpha Orbitals:
       Occupied  (A) (A) (A) (A) (A) (A) (A) (A) (A) (A) (A) (A)
                 (A) (A) (A) (A) (A) (A) (A) (A) (A) (A) (A) (A)
                 (A) (A) (A) (A) (A) (A) (A) (A) (A) (A) (A) (A)
                 (A) (A) (A) (A) (A) (A) (A) (A) (A) (A) (A) (A)
                 (A) (A) (A) (A) (A) (A) (A) (A) (A) (A) (A) (A)
                 (A) (A) (A) (A) (A) (A) (A) (A) (A) (A) (A) (A)
                 (A) (A) (A) (A) (A) (A) (A) (A) (A) (A) (A) (A)
                 (A) (A) (A) (A) (A) (A) (A) (A) (A) (A) (A) (A)
                 (A) (A) (A) (A) (A) (A) (A) (A) (A) (A) (A) (A)
                 (A) (A) (A) (A) (A) (A) (A) (A) (A) (A) (A) (A)
                 (A) (A) (A) (A) (A) (A) (A) (A) (A) (A) (A) (A)
                 (A) (A) (A) (A) (A) (A) (A) (A) (A) (A) (A) (A)
                 (A) (A) (A) (A) (A) (A) (A) (A) (A) (A) (A) (A)
                 (A) (A) (A) (A) (A) (A) (A) (A) (A) (A) (A) (A)
                 (A) (A) (A) (A) (A) (A) (A) (A) (A) (A) (A) (A)
                 (A) (A) (A) (A) (A) (A) (A) (A) (A) (A) (A) (A)
                 (A) (A) (A) (A) (A) (A) (A) (A) (A) (A) (A) (A)
                 (A) (A) (A) (A) (A) (A) (A) (A) (A) (A) (A) (A)
                 (A) (A) (A) (A) (A) (A) (A) (A) (A) (A) (A) (A)
                 (A) (A) (A) (A) (A) (A) (A) (A) (A) (A) (A) (A)
                 (A) (A) (A) (A) (A) (A) (A) (A) (A) (A) (A) (A)
                 (A) (A) (A) (A) (A) (A) (A) (A) (A) (A) (A) (A)
                 (A) (A) (A) (A) (A) (A) (A) (A) (A) (A) (A) (A)
                 (A) (A) (A) (A) (A) (A) (A) (A) (A) (A) (A) (A)
                 (A) (A) (A) (A) (A) (A) (A) (A) (A) (A) (A) (A)
                 (A) (A) (A) (A) (A) (A) (A) (A) (A) (A) (A) (A)
                 (A) (A) (A) (A) (A) (A) (A) (A) (A) (A) (A)
       Virtual   (A) (A) (A) (A) (A) (A) (A) (A) (A) (A) (A) (A)
                 (A) (A) (A) (A) (A) (A) (A) (A) (A) (A) (A) (A)
                 (A) (A) (A) (A) (A) (A) (A) (A) (A) (A) (A) (A)
                 (A) (A) (A) (A) (A) (A) (A) (A) (A) (A) (A) (A)
                 (A) (A) (A) (A) (A) (A) (A) (A) (A) (A) (A) (A)
                 (A) (A) (A) (A) (A) (A) (A) (A) (A) (A) (A) (A)
                 (A) (A) (A) (A) (A) (A) (A) (A) (A) (A) (A) (A)
                 (A) (A) (A) (A) (A) (A) (A) (A) (A) (A) (A) (A)
                 (A) (A) (A) (A) (A) (A) (A) (A) (A) (A) (A) (A)
                 (A) (A) (A) (A) (A) (A) (A) (A) (A) (A) (A) (A)
                 (A) (A) (A) (A) (A) (A) (A) (A) (A) (A) (A) (A)
                 (A) (A) (A) (A) (A) (A) (A) (A) (A) (A) (A) (A)
                 (A) (A) (A) (A) (A) (A) (A) (A) (A) (A) (A) (A)
                 (A) (A) (A) (A) (A) (A) (A) (A) (A) (A) (A) (A)
                 (A) (A) (A) (A) (A) (A) (A) (A) (A) (A) (A) (A)
                 (A) (A) (A) (A) (A) (A) (A) (A) (A) (A) (A) (A)
                 (A) (A) (A) (A) (A) (A) (A) (A) (A) (A) (A) (A)
                 (A) (A) (A) (A) (A) (A) (A) (A) (A) (A) (A) (A)
                 (A) (A) (A) (A) (A) (A) (A) (A) (A) (A) (A) (A)
                 (A) (A) (A) (A) (A) (A) (A) (A) (A) (A) (A) (A)
                 (A) (A) (A) (A) (A) (A) (A) (A) (A) (A) (A) (A)
                 (A) (A) (A) (A) (A) (A) (A) (A) (A) (A) (A) (A)
                 (A) (A) (A) (A) (A) (A) (A) (A) (A) (A) (A) (A)
                 (A) (A) (A) (A) (A) (A) (A) (A) (A) (A) (A) (A)
                 (A) (A) (A) (A) (A) (A) (A) (A) (A) (A) (A) (A)
                 (A) (A) (A) (A) (A) (A) (A) (A) (A) (A) (A) (A)
                 (A) (A) (A) (A) (A) (A) (A) (A) (A) (A) (A) (A)
                 (A) (A) (A) (A) (A) (A) (A) (A) (A) (A) (A) (A)
                 (A) (A) (A) (A) (A) (A) (A) (A) (A) (A) (A) (A)
                 (A) (A) (A) (A) (A) (A) (A) (A) (A) (A) (A) (A)
                 (A) (A) (A) (A) (A) (A) (A) (A) (A) (A) (A) (A)
                 (A) (A) (A) (A) (A) (A) (A) (A) (A) (A) (A) (A)
                 (A) (A) (A) (A) (A) (A) (A) (A) (A) (A) (A) (A)
                 (A) (A) (A) (A) (A) (A) (A) (A) (A) (A) (A) (A)
                 (A) (A) (A) (A) (A) (A) (A) (A) (A) (A) (A) (A)
                 (A) (A) (A) (A) (A) (A) (A) (A) (A) (A) (A) (A)
                 (A) (A) (A) (A) (A) (A) (A) (A) (A) (A) (A) (A)
                 (A) (A) (A) (A) (A) (A) (A) (A) (A) (A) (A) (A)
                 (A) (A) (A) (A) (A) (A) (A) (A) (A) (A) (A) (A)
                 (A) (A) (A) (A) (A) (A) (A) (A) (A) (A) (A) (A)
                 (A) (A) (A) (A) (A) (A) (A) (A) (A) (A) (A) (A)
                 (A) (A) (A) (A) (A) (A) (A) (A) (A) (A) (A) (A)
                 (A) (A) (A) (A) (A) (A) (A) (A) (A) (A) (A) (A)
                 (A) (A) (A) (A) (A) (A) (A) (A) (A) (A) (A) (A)
                 (A) (A) (A) (A) (A) (A) (A) (A) (A) (A) (A) (A)
                 (A) (A) (A) (A) (A) (A) (A) (A) (A) (A) (A) (A)
                 (A) (A) (A) (A) (A) (A) (A) (A) (A) (A) (A) (A)
                 (A) (A) (A) (A) (A) (A) (A) (A) (A) (A) (A) (A)
                 (A) (A) (A) (A) (A) (A) (A) (A) (A) (A) (A) (A)
                 (A) (A) (A) (A) (A) (A) (A) (A) (A) (A) (A) (A)
                 (A) (A) (A) (A) (A) (A) (A) (A) (A) (A) (A) (A)
                 (A) (A) (A) (A) (A) (A) (A) (A) (A) (A) (A) (A)
                 (A) (A) (A) (A) (A) (A) (A) (A) (A) (A) (A) (A)
                 (A) (A) (A) (A) (A) (A) (A) (A) (A) (A) (A) (A)
                 (A) (A) (A) (A) (A) (A) (A) (A) (A) (A) (A) (A)
                 (A) (A) (A) (A) (A) (A) (A) (A) (A) (A) (A) (A)
                 (A) (A) (A) (A) (A) (A) (A) (A) (A) (A) (A) (A)
                 (A) (A) (A) (A) (A) (A) (A) (A) (A) (A) (A) (A)
                 (A) (A) (A) (A) (A) (A) (A) (A) (A) (A) (A) (A)
                 (A) (A) (A) (A) (A) (A) (A) (A) (A) (A) (A) (A)
                 (A) (A) (A) (A) (A) (A) (A) (A) (A) (A) (A) (A)
                 (A) (A) (A) (A) (A) (A) (A) (A) (A) (A) (A) (A)
                 (A) (A) (A) (A) (A) (A) (A) (A) (A) (A) (A) (A)
                 (A) (A) (A) (A) (A) (A) (A) (A) (A) (A) (A) (A)
                 (A) (A) (A) (A) (A) (A) (A) (A) (A) (A) (A) (A)
                 (A) (A) (A) (A) (A) (A) (A) (A) (A) (A) (A) (A)
                 (A) (A) (A) (A) (A) (A) (A) (A) (A) (A) (A) (A)
                 (A) (A) (A) (A) (A) (A) (A) (A) (A) (A) (A) (A)
                 (A) (A) (A) (A) (A) (A) (A) (A) (A) (A) (A) (A)
                 (A) (A) (A) (A) (A) (A) (A) (A) (A) (A) (A) (A)
                 (A) (A) (A) (A) (A) (A) (A) (A) (A) (A) (A) (A)
                 (A) (A) (A) (A) (A) (A) (A) (A) (A) (A) (A) (A)
                 (A) (A) (A) (A) (A) (A) (A) (A) (A) (A) (A) (A)
                 (A) (A) (A) (A) (A) (A) (A) (A) (A) (A) (A) (A)
                 (A) (A) (A) (A) (A) (A) (A) (A) (A) (A) (A) (A)
                 (A) (A) (A) (A) (A) (A) (A) (A) (A) (A) (A) (A)
                 (A) (A) (A) (A) (A) (A) (A) (A) (A) (A) (A) (A)
                 (A) (A) (A) (A) (A) (A) (A) (A) (A) (A) (A) (A)
                 (A) (A) (A) (A) (A) (A) (A) (A) (A) (A) (A) (A)
                 (A) (A) (A) (A) (A) (A) (A) (A) (A) (A) (A) (A)
                 (A) (A) (A) (A) (A) (A) (A) (A) (A) (A) (A) (A)
                 (A) (A) (A) (A) (A) (A) (A) (A) (A) (A) (A) (A)
                 (A) (A) (A) (A) (A) (A) (A) (A) (A) (A) (A) (A)
                 (A) (A) (A) (A) (A) (A) (A) (A) (A) (A) (A) (A)
                 (A) (A) (A) (A) (A) (A) (A) (A) (A) (A) (A) (A)
                 (A) (A) (A) (A) (A) (A) (A) (A) (A) (A) (A) (A)
                 (A) (A) (A) (A) (A) (A) (A) (A) (A) (A) (A) (A)
                 (A) (A) (A) (A) (A) (A) (A) (A) (A) (A) (A) (A)
                 (A) (A) (A) (A) (A) (A) (A) (A) (A) (A) (A) (A)
                 (A) (A) (A) (A) (A) (A) (A) (A) (A) (A) (A) (A)
                 (A) (A) (A) (A) (A) (A) (A) (A) (A) (A) (A) (A)
                 (A) (A) (A) (A) (A) (A) (A) (A) (A) (A) (A) (A)
                 (A) (A) (A) (A) (A) (A) (A) (A) (A) (A) (A) (A)
                 (A) (A) (A) (A) (A) (A) (A) (A) (A) (A) (A) (A)
                 (A) (A) (A) (A) (A) (A) (A) (A) (A) (A) (A) (A)
                 (A) (A) (A) (A) (A) (A) (A) (A) (A) (A) (A) (A)
                 (A) (A) (A) (A) (A) (A) (A) (A) (A) (A) (A) (A)
                 (A) (A) (A) (A) (A) (A) (A) (A) (A) (A) (A) (A)
                 (A) (A) (A) (A) (A) (A) (A) (A) (A) (A) (A) (A)
                 (A) (A) (A) (A) (A) (A) (A) (A) (A) (A) (A) (A)
                 (A) (A) (A) (A) (A) (A) (A) (A)
 Beta  Orbitals:
       Occupied  (A) (A) (A) (A) (A) (A) (A) (A) (A) (A) (A) (A)
                 (A) (A) (A) (A) (A) (A) (A) (A) (A) (A) (A) (A)
                 (A) (A) (A) (A) (A) (A) (A) (A) (A) (A) (A) (A)
                 (A) (A) (A) (A) (A) (A) (A) (A) (A) (A) (A) (A)
                 (A) (A) (A) (A) (A) (A) (A) (A) (A) (A) (A) (A)
                 (A) (A) (A) (A) (A) (A) (A) (A) (A) (A) (A) (A)
                 (A) (A) (A) (A) (A) (A) (A) (A) (A) (A) (A) (A)
                 (A) (A) (A) (A) (A) (A) (A) (A) (A) (A) (A) (A)
                 (A) (A) (A) (A) (A) (A) (A) (A) (A) (A) (A) (A)
                 (A) (A) (A) (A) (A) (A) (A) (A) (A) (A) (A) (A)
                 (A) (A) (A) (A) (A) (A) (A) (A) (A) (A) (A) (A)
                 (A) (A) (A) (A) (A) (A) (A) (A) (A) (A) (A) (A)
                 (A) (A) (A) (A) (A) (A) (A) (A) (A) (A) (A) (A)
                 (A) (A) (A) (A) (A) (A) (A) (A) (A) (A) (A) (A)
                 (A) (A) (A) (A) (A) (A) (A) (A) (A) (A) (A) (A)
                 (A) (A) (A) (A) (A) (A) (A) (A) (A) (A) (A) (A)
                 (A) (A) (A) (A) (A) (A) (A) (A) (A) (A) (A) (A)
                 (A) (A) (A) (A) (A) (A) (A) (A) (A) (A) (A) (A)
                 (A) (A) (A) (A) (A) (A) (A) (A) (A) (A) (A) (A)
                 (A) (A) (A) (A) (A) (A) (A) (A) (A) (A) (A) (A)
                 (A) (A) (A) (A) (A) (A) (A) (A) (A) (A) (A) (A)
                 (A) (A) (A) (A) (A) (A) (A) (A) (A) (A) (A) (A)
                 (A) (A) (A) (A) (A) (A) (A) (A) (A) (A) (A) (A)
                 (A) (A) (A) (A) (A) (A) (A) (A) (A) (A) (A) (A)
                 (A) (A) (A) (A) (A) (A) (A) (A) (A) (A) (A) (A)
                 (A) (A) (A) (A) (A) (A) (A) (A) (A) (A) (A) (A)
                 (A) (A) (A) (A) (A) (A) (A) (A) (A) (A)
       Virtual   (A) (A) (A) (A) (A) (A) (A) (A) (A) (A) (A) (A)
                 (A) (A) (A) (A) (A) (A) (A) (A) (A) (A) (A) (A)
                 (A) (A) (A) (A) (A) (A) (A) (A) (A) (A) (A) (A)
                 (A) (A) (A) (A) (A) (A) (A) (A) (A) (A) (A) (A)
                 (A) (A) (A) (A) (A) (A) (A) (A) (A) (A) (A) (A)
                 (A) (A) (A) (A) (A) (A) (A) (A) (A) (A) (A) (A)
                 (A) (A) (A) (A) (A) (A) (A) (A) (A) (A) (A) (A)
                 (A) (A) (A) (A) (A) (A) (A) (A) (A) (A) (A) (A)
                 (A) (A) (A) (A) (A) (A) (A) (A) (A) (A) (A) (A)
                 (A) (A) (A) (A) (A) (A) (A) (A) (A) (A) (A) (A)
                 (A) (A) (A) (A) (A) (A) (A) (A) (A) (A) (A) (A)
                 (A) (A) (A) (A) (A) (A) (A) (A) (A) (A) (A) (A)
                 (A) (A) (A) (A) (A) (A) (A) (A) (A) (A) (A) (A)
                 (A) (A) (A) (A) (A) (A) (A) (A) (A) (A) (A) (A)
                 (A) (A) (A) (A) (A) (A) (A) (A) (A) (A) (A) (A)
                 (A) (A) (A) (A) (A) (A) (A) (A) (A) (A) (A) (A)
                 (A) (A) (A) (A) (A) (A) (A) (A) (A) (A) (A) (A)
                 (A) (A) (A) (A) (A) (A) (A) (A) (A) (A) (A) (A)
                 (A) (A) (A) (A) (A) (A) (A) (A) (A) (A) (A) (A)
                 (A) (A) (A) (A) (A) (A) (A) (A) (A) (A) (A) (A)
                 (A) (A) (A) (A) (A) (A) (A) (A) (A) (A) (A) (A)
                 (A) (A) (A) (A) (A) (A) (A) (A) (A) (A) (A) (A)
                 (A) (A) (A) (A) (A) (A) (A) (A) (A) (A) (A) (A)
                 (A) (A) (A) (A) (A) (A) (A) (A) (A) (A) (A) (A)
                 (A) (A) (A) (A) (A) (A) (A) (A) (A) (A) (A) (A)
                 (A) (A) (A) (A) (A) (A) (A) (A) (A) (A) (A) (A)
                 (A) (A) (A) (A) (A) (A) (A) (A) (A) (A) (A) (A)
                 (A) (A) (A) (A) (A) (A) (A) (A) (A) (A) (A) (A)
                 (A) (A) (A) (A) (A) (A) (A) (A) (A) (A) (A) (A)
                 (A) (A) (A) (A) (A) (A) (A) (A) (A) (A) (A) (A)
                 (A) (A) (A) (A) (A) (A) (A) (A) (A) (A) (A) (A)
                 (A) (A) (A) (A) (A) (A) (A) (A) (A) (A) (A) (A)
                 (A) (A) (A) (A) (A) (A) (A) (A) (A) (A) (A) (A)
                 (A) (A) (A) (A) (A) (A) (A) (A) (A) (A) (A) (A)
                 (A) (A) (A) (A) (A) (A) (A) (A) (A) (A) (A) (A)
                 (A) (A) (A) (A) (A) (A) (A) (A) (A) (A) (A) (A)
                 (A) (A) (A) (A) (A) (A) (A) (A) (A) (A) (A) (A)
                 (A) (A) (A) (A) (A) (A) (A) (A) (A) (A) (A) (A)
                 (A) (A) (A) (A) (A) (A) (A) (A) (A) (A) (A) (A)
                 (A) (A) (A) (A) (A) (A) (A) (A) (A) (A) (A) (A)
                 (A) (A) (A) (A) (A) (A) (A) (A) (A) (A) (A) (A)
                 (A) (A) (A) (A) (A) (A) (A) (A) (A) (A) (A) (A)
                 (A) (A) (A) (A) (A) (A) (A) (A) (A) (A) (A) (A)
                 (A) (A) (A) (A) (A) (A) (A) (A) (A) (A) (A) (A)
                 (A) (A) (A) (A) (A) (A) (A) (A) (A) (A) (A) (A)
                 (A) (A) (A) (A) (A) (A) (A) (A) (A) (A) (A) (A)
                 (A) (A) (A) (A) (A) (A) (A) (A) (A) (A) (A) (A)
                 (A) (A) (A) (A) (A) (A) (A) (A) (A) (A) (A) (A)
                 (A) (A) (A) (A) (A) (A) (A) (A) (A) (A) (A) (A)
                 (A) (A) (A) (A) (A) (A) (A) (A) (A) (A) (A) (A)
                 (A) (A) (A) (A) (A) (A) (A) (A) (A) (A) (A) (A)
                 (A) (A) (A) (A) (A) (A) (A) (A) (A) (A) (A) (A)
                 (A) (A) (A) (A) (A) (A) (A) (A) (A) (A) (A) (A)
                 (A) (A) (A) (A) (A) (A) (A) (A) (A) (A) (A) (A)
                 (A) (A) (A) (A) (A) (A) (A) (A) (A) (A) (A) (A)
                 (A) (A) (A) (A) (A) (A) (A) (A) (A) (A) (A) (A)
                 (A) (A) (A) (A) (A) (A) (A) (A) (A) (A) (A) (A)
                 (A) (A) (A) (A) (A) (A) (A) (A) (A) (A) (A) (A)
                 (A) (A) (A) (A) (A) (A) (A) (A) (A) (A) (A) (A)
                 (A) (A) (A) (A) (A) (A) (A) (A) (A) (A) (A) (A)
                 (A) (A) (A) (A) (A) (A) (A) (A) (A) (A) (A) (A)
                 (A) (A) (A) (A) (A) (A) (A) (A) (A) (A) (A) (A)
                 (A) (A) (A) (A) (A) (A) (A) (A) (A) (A) (A) (A)
                 (A) (A) (A) (A) (A) (A) (A) (A) (A) (A) (A) (A)
                 (A) (A) (A) (A) (A) (A) (A) (A) (A) (A) (A) (A)
                 (A) (A) (A) (A) (A) (A) (A) (A) (A) (A) (A) (A)
                 (A) (A) (A) (A) (A) (A) (A) (A) (A) (A) (A) (A)
                 (A) (A) (A) (A) (A) (A) (A) (A) (A) (A) (A) (A)
                 (A) (A) (A) (A) (A) (A) (A) (A) (A) (A) (A) (A)
                 (A) (A) (A) (A) (A) (A) (A) (A) (A) (A) (A) (A)
                 (A) (A) (A) (A) (A) (A) (A) (A) (A) (A) (A) (A)
                 (A) (A) (A) (A) (A) (A) (A) (A) (A) (A) (A) (A)
                 (A) (A) (A) (A) (A) (A) (A) (A) (A) (A) (A) (A)
                 (A) (A) (A) (A) (A) (A) (A) (A) (A) (A) (A) (A)
                 (A) (A) (A) (A) (A) (A) (A) (A) (A) (A) (A) (A)
                 (A) (A) (A) (A) (A) (A) (A) (A) (A) (A) (A) (A)
                 (A) (A) (A) (A) (A) (A) (A) (A) (A) (A) (A) (A)
                 (A) (A) (A) (A) (A) (A) (A) (A) (A) (A) (A) (A)
                 (A) (A) (A) (A) (A) (A) (A) (A) (A) (A) (A) (A)
                 (A) (A) (A) (A) (A) (A) (A) (A) (A) (A) (A) (A)
                 (A) (A) (A) (A) (A) (A) (A) (A) (A) (A) (A) (A)
                 (A) (A) (A) (A) (A) (A) (A) (A) (A) (A) (A) (A)
                 (A) (A) (A) (A) (A) (A) (A) (A) (A) (A) (A) (A)
                 (A) (A) (A) (A) (A) (A) (A) (A) (A) (A) (A) (A)
                 (A) (A) (A) (A) (A) (A) (A) (A) (A) (A) (A) (A)
                 (A) (A) (A) (A) (A) (A) (A) (A) (A) (A) (A) (A)
                 (A) (A) (A) (A) (A) (A) (A) (A) (A) (A) (A) (A)
                 (A) (A) (A) (A) (A) (A) (A) (A) (A) (A) (A) (A)
                 (A) (A) (A) (A) (A) (A) (A) (A) (A) (A) (A) (A)
                 (A) (A) (A) (A) (A) (A) (A) (A) (A) (A) (A) (A)
                 (A) (A) (A) (A) (A) (A) (A) (A) (A) (A) (A) (A)
                 (A) (A) (A) (A) (A) (A) (A) (A) (A) (A) (A) (A)
                 (A) (A) (A) (A) (A) (A) (A) (A) (A) (A) (A) (A)
                 (A) (A) (A) (A) (A) (A) (A) (A) (A) (A) (A) (A)
                 (A) (A) (A) (A) (A) (A) (A) (A) (A) (A) (A) (A)
                 (A) (A) (A) (A) (A) (A) (A) (A) (A) (A) (A) (A)
                 (A) (A) (A) (A) (A) (A) (A) (A) (A) (A) (A) (A)
                 (A) (A) (A) (A) (A) (A) (A) (A) (A) (A) (A) (A)
                 (A) (A) (A) (A) (A) (A) (A) (A) (A) (A) (A) (A)
                 (A) (A) (A) (A) (A) (A) (A) (A) (A) (A) (A) (A)
                 (A) (A) (A) (A) (A) (A) (A) (A) (A)
 The electronic state of the initial guess is 2-A.
 Initial guess <Sx>= 0.0000 <Sy>= 0.0000 <Sz>= 0.5000 <S**2>= 0.7500 S= 0.5000
 Leave Link  401 at Sat Mar 28 19:12:44 2015, MaxMem= 1073741824 cpu:     624.1
 (Enter /opt/g09/l502.exe)
 UHF open shell SCF:
 Requested convergence on RMS density matrix=1.00D-08 within 128 cycles.
 Requested convergence on MAX density matrix=1.00D-06.
 Requested convergence on             energy=1.00D-06.
 No special actions if energy rises.
 Using DIIS extrapolation, IDIIS=  1040.
 Integral symmetry usage will be decided dynamically.
      1415617 words used for storage of precomputed grid.
 IEnd=     8513937 IEndB=     8513937 NGot=  1073741824 MDV=  1067590020
 LenX=  1067590020 LenY=  1065244528
 Fock matrices will be formed incrementally for  20 cycles.
 Integral accuracy reduced to 1.0D-05 until final iterations.

 Cycle   1  Pass 0  IDiag  1:
 FoFCou: FMM=T IPFlag=           0 FMFlag=      100000 FMFlg1=        2001
         NFxFlg=           0 DoJE=F BraDBF=F KetDBF=F FulRan=T
         Omega=  0.000000  0.000000  1.000000  0.000000  0.000000 ICntrl=       0 IOpCl=  1
         NMat0=    1 NMatS0=    1 NMatT0=    0 NMatD0=    1 NMtDS0=    0 NMtDT0=    0
         I1Cent=           0 NGrid=           0.
 Symmetry not used in FoFCou.
 FMM levels:  10  Number of levels for PrismC:   9
 E= -3946.23476402575    
 DIIS: error= 1.70D-02 at cycle   1 NSaved=   1.
 NSaved= 1 IEnMin= 1 EnMin= -3946.23476402575     IErMin= 1 ErrMin= 1.70D-02
 ErrMax= 1.70D-02 EMaxC= 1.00D-01 BMatC= 7.00D+00 BMatP= 7.00D+00
 IDIUse=3 WtCom= 8.30D-01 WtEn= 1.70D-01
 Coeff-Com:  0.100D+01
 Coeff-En:   0.100D+01
 Coeff:      0.100D+01
 Gap=     0.200 Goal=   None    Shift=    0.000
 Gap=    -0.026 Goal=   None    Shift=    0.000
 GapD=   -0.026 DampG=0.250 DampE=0.500 DampFc=0.2500 IDamp=-1.
 Damping current iteration by 2.50D-01
 RMSDP=2.16D-03 MaxDP=1.25D-01              OVMax= 8.68D-01

 Cycle   2  Pass 0  IDiag  1:
 RMSU=  3.64D-04    CP:  9.86D-01
 E= -3946.88617496908     Delta-E=       -0.651410943337 Rises=F Damp=T
 DIIS: error= 1.14D-02 at cycle   2 NSaved=   2.
 NSaved= 2 IEnMin= 2 EnMin= -3946.88617496908     IErMin= 2 ErrMin= 1.14D-02
 ErrMax= 1.14D-02 EMaxC= 1.00D-01 BMatC= 2.00D+00 BMatP= 7.00D+00
 IDIUse=3 WtCom= 8.86D-01 WtEn= 1.14D-01
 Coeff-Com: -0.844D+00 0.184D+01
 Coeff-En:   0.000D+00 0.100D+01
 Coeff:     -0.747D+00 0.175D+01
 Gap=     0.186 Goal=   None    Shift=    0.000
 Gap=    -0.004 Goal=   None    Shift=    0.000
 RMSDP=9.48D-04 MaxDP=1.08D-01 DE=-6.51D-01 OVMax= 6.59D-01

 Cycle   3  Pass 0  IDiag  1:
 RMSU=  5.51D-04    CP:  9.57D-01  1.80D+00
 E= -3947.74976624709     Delta-E=       -0.863591278001 Rises=F Damp=F
 DIIS: error= 9.32D-03 at cycle   3 NSaved=   3.
 NSaved= 3 IEnMin= 3 EnMin= -3947.74976624709     IErMin= 3 ErrMin= 9.32D-03
 ErrMax= 9.32D-03 EMaxC= 1.00D-01 BMatC= 1.20D+00 BMatP= 2.00D+00
 IDIUse=3 WtCom= 9.07D-01 WtEn= 9.32D-02
 Coeff-Com: -0.576D+00 0.115D+01 0.426D+00
 Coeff-En:   0.000D+00 0.000D+00 0.100D+01
 Coeff:     -0.522D+00 0.104D+01 0.479D+00
 Gap=     0.183 Goal=   None    Shift=    0.000
 Gap=     0.024 Goal=   None    Shift=    0.000
 RMSDP=8.02D-04 MaxDP=1.13D-01 DE=-8.64D-01 OVMax= 8.55D-01

 Cycle   4  Pass 0  IDiag  1:
 RMSU=  2.75D-04    CP:  9.59D-01  2.19D+00  2.58D-01
 E= -3947.93642550470     Delta-E=       -0.186659257619 Rises=F Damp=F
 DIIS: error= 7.25D-03 at cycle   4 NSaved=   4.
 NSaved= 4 IEnMin= 4 EnMin= -3947.93642550470     IErMin= 4 ErrMin= 7.25D-03
 ErrMax= 7.25D-03 EMaxC= 1.00D-01 BMatC= 4.97D-01 BMatP= 1.20D+00
 IDIUse=3 WtCom= 9.28D-01 WtEn= 7.25D-02
 Coeff-Com: -0.219D+00 0.437D+00 0.369D+00 0.413D+00
 Coeff-En:   0.000D+00 0.000D+00 0.356D+00 0.644D+00
 Coeff:     -0.203D+00 0.405D+00 0.368D+00 0.430D+00
 Gap=     0.159 Goal=   None    Shift=    0.000
 Gap=    -0.020 Goal=   None    Shift=    0.000
 RMSDP=5.72D-04 MaxDP=7.08D-02 DE=-1.87D-01 OVMax= 9.42D-01

 Cycle   5  Pass 0  IDiag  1:
 RMSU=  1.59D-04    CP:  9.60D-01  1.92D+00  6.01D-01  2.04D-01
 E= -3948.05022051546     Delta-E=       -0.113795010751 Rises=F Damp=F
 DIIS: error= 2.66D-03 at cycle   5 NSaved=   5.
 NSaved= 5 IEnMin= 5 EnMin= -3948.05022051546     IErMin= 5 ErrMin= 2.66D-03
 ErrMax= 2.66D-03 EMaxC= 1.00D-01 BMatC= 1.28D-01 BMatP= 4.97D-01
 IDIUse=3 WtCom= 9.73D-01 WtEn= 2.66D-02
 Coeff-Com: -0.649D-01 0.131D+00 0.221D+00 0.360D+00 0.353D+00
 Coeff-En:   0.000D+00 0.000D+00 0.000D+00 0.243D+00 0.757D+00
 Coeff:     -0.632D-01 0.128D+00 0.215D+00 0.356D+00 0.364D+00
 Gap=     0.143 Goal=   None    Shift=    0.000
 Gap=     0.022 Goal=   None    Shift=    0.000
 RMSDP=2.00D-04 MaxDP=2.15D-02 DE=-1.14D-01 OVMax= 2.43D-01

 Cycle   6  Pass 0  IDiag  1:
 RMSU=  7.02D-05    CP:  9.60D-01  1.93D+00  5.91D-01  3.08D-01  6.53D-01
 E= -3948.08516745606     Delta-E=       -0.034946940603 Rises=F Damp=F
 DIIS: error= 1.03D-03 at cycle   6 NSaved=   6.
 NSaved= 6 IEnMin= 6 EnMin= -3948.08516745606     IErMin= 6 ErrMin= 1.03D-03
 ErrMax= 1.03D-03 EMaxC= 1.00D-01 BMatC= 1.06D-02 BMatP= 1.28D-01
 IDIUse=3 WtCom= 9.90D-01 WtEn= 1.03D-02
 Coeff-Com: -0.211D-01 0.398D-01 0.766D-01 0.182D+00 0.168D+00 0.555D+00
 Coeff-En:   0.000D+00 0.000D+00 0.000D+00 0.000D+00 0.000D+00 0.100D+01
 Coeff:     -0.208D-01 0.394D-01 0.758D-01 0.180D+00 0.166D+00 0.560D+00
 Gap=     0.125 Goal=   None    Shift=    0.000
 Gap=     0.007 Goal=   None    Shift=    0.000
 RMSDP=1.42D-04 MaxDP=1.94D-02 DE=-3.49D-02 OVMax= 2.07D-01

 Cycle   7  Pass 0  IDiag  1:
 RMSU=  4.58D-05    CP:  9.60D-01  1.96D+00  5.63D-01  3.88D-01  5.81D-01
                    CP:  8.94D-01
 E= -3948.08341322454     Delta-E=        0.001754231518 Rises=F Damp=F
 DIIS: error= 2.09D-03 at cycle   7 NSaved=   7.
 NSaved= 7 IEnMin= 6 EnMin= -3948.08516745606     IErMin= 6 ErrMin= 1.03D-03
 ErrMax= 2.09D-03 EMaxC= 1.00D-01 BMatC= 1.67D-02 BMatP= 1.06D-02
 IDIUse=3 WtCom= 9.90D-01 WtEn= 1.03D-02
 Coeff-Com: -0.258D-02 0.213D-02 0.129D-01 0.819D-01 0.536D-01 0.531D+00
 Coeff-Com:  0.321D+00
 Coeff-En:   0.000D+00 0.000D+00 0.000D+00 0.000D+00 0.000D+00 0.578D+00
 Coeff-En:   0.422D+00
 Coeff:     -0.255D-02 0.211D-02 0.127D-01 0.810D-01 0.531D-01 0.531D+00
 Coeff:      0.323D+00
 Gap=     0.124 Goal=   None    Shift=    0.000
 Gap=     0.011 Goal=   None    Shift=    0.000
 RMSDP=1.03D-04 MaxDP=1.51D-02 DE= 1.75D-03 OVMax= 1.78D-01

 Cycle   8  Pass 0  IDiag  1:
 RMSU=  2.90D-05    CP:  9.60D-01  1.97D+00  5.53D-01  4.12D-01  5.68D-01
                    CP:  1.12D+00  4.04D-01
 E= -3948.08816544633     Delta-E=       -0.004752221790 Rises=F Damp=F
 DIIS: error= 7.60D-04 at cycle   8 NSaved=   8.
 NSaved= 8 IEnMin= 8 EnMin= -3948.08816544633     IErMin= 8 ErrMin= 7.60D-04
 ErrMax= 7.60D-04 EMaxC= 1.00D-01 BMatC= 3.22D-03 BMatP= 1.06D-02
 IDIUse=3 WtCom= 9.92D-01 WtEn= 7.60D-03
 Coeff-Com:  0.976D-04-0.242D-02-0.591D-02 0.228D-01 0.885D-02 0.321D+00
 Coeff-Com:  0.280D+00 0.375D+00
 Coeff-En:   0.000D+00 0.000D+00 0.000D+00 0.000D+00 0.000D+00 0.000D+00
 Coeff-En:   0.206D+00 0.794D+00
 Coeff:      0.969D-04-0.240D-02-0.586D-02 0.226D-01 0.878D-02 0.319D+00
 Coeff:      0.280D+00 0.379D+00
 Gap=     0.125 Goal=   None    Shift=    0.000
 Gap=     0.014 Goal=   None    Shift=    0.000
 RMSDP=3.19D-05 MaxDP=4.73D-03 DE=-4.75D-03 OVMax= 4.74D-02

 Cycle   9  Pass 0  IDiag  1:
 RMSU=  9.69D-06    CP:  9.60D-01  1.96D+00  5.55D-01  4.12D-01  5.69D-01
                    CP:  1.09D+00  5.51D-01  6.31D-01
 E= -3948.08909303879     Delta-E=       -0.000927592464 Rises=F Damp=F
 DIIS: error= 1.18D-04 at cycle   9 NSaved=   9.
 NSaved= 9 IEnMin= 9 EnMin= -3948.08909303879     IErMin= 9 ErrMin= 1.18D-04
 ErrMax= 1.18D-04 EMaxC= 1.00D-01 BMatC= 2.49D-04 BMatP= 3.22D-03
 IDIUse=3 WtCom= 9.99D-01 WtEn= 1.18D-03
 Coeff-Com:  0.376D-04-0.777D-03-0.260D-02 0.112D-02 0.122D-01 0.105D+00
 Coeff-Com:  0.103D+00 0.209D+00 0.573D+00
 Coeff-En:   0.000D+00 0.000D+00 0.000D+00 0.000D+00 0.000D+00 0.000D+00
 Coeff-En:   0.000D+00 0.229D-01 0.977D+00
 Coeff:      0.375D-04-0.776D-03-0.260D-02 0.112D-02 0.121D-01 0.105D+00
 Coeff:      0.103D+00 0.208D+00 0.573D+00
 Gap=     0.126 Goal=   None    Shift=    0.000
 Gap=     0.015 Goal=   None    Shift=    0.000
 RMSDP=9.84D-06 MaxDP=8.70D-04 DE=-9.28D-04 OVMax= 8.04D-03

 Initial convergence to 1.0D-05 achieved.  Increase integral accuracy.
 Cycle  10  Pass 1  IDiag  1:
 E= -3948.08926075897     Delta-E=       -0.000167720180 Rises=F Damp=F
 DIIS: error= 1.34D-04 at cycle   1 NSaved=   1.
 NSaved= 1 IEnMin= 1 EnMin= -3948.08926075897     IErMin= 1 ErrMin= 1.34D-04
 ErrMax= 1.34D-04 EMaxC= 1.00D-01 BMatC= 1.70D-04 BMatP= 1.70D-04
 IDIUse=3 WtCom= 9.99D-01 WtEn= 1.34D-03
 Coeff-Com:  0.100D+01
 Coeff-En:   0.100D+01
 Coeff:      0.100D+01
 Gap=     0.128 Goal=   None    Shift=    0.000
 Gap=     0.016 Goal=   None    Shift=    0.000
 RMSDP=9.84D-06 MaxDP=8.70D-04 DE=-1.68D-04 OVMax= 1.79D-02

 Cycle  11  Pass 1  IDiag  1:
 RMSU=  4.29D-05    CP:  1.00D+00
 E= -3948.08914282698     Delta-E=        0.000117931995 Rises=F Damp=F
 DIIS: error= 2.35D-04 at cycle   2 NSaved=   2.
 NSaved= 2 IEnMin= 1 EnMin= -3948.08926075897     IErMin= 1 ErrMin= 1.34D-04
 ErrMax= 2.35D-04 EMaxC= 1.00D-01 BMatC= 5.38D-04 BMatP= 1.70D-04
 IDIUse=3 WtCom= 3.95D-01 WtEn= 6.05D-01
 Coeff-Com:  0.671D+00 0.329D+00
 Coeff-En:   0.773D+00 0.227D+00
 Coeff:      0.733D+00 0.267D+00
 Gap=     0.127 Goal=   None    Shift=    0.000
 Gap=     0.015 Goal=   None    Shift=    0.000
 RMSDP=1.73D-05 MaxDP=2.63D-03 DE= 1.18D-04 OVMax= 2.21D-02

 Cycle  12  Pass 1  IDiag  1:
 RMSU=  6.33D-06    CP:  1.00D+00  9.29D-01
 E= -3948.08929372969     Delta-E=       -0.000150902713 Rises=F Damp=F
 DIIS: error= 9.49D-05 at cycle   3 NSaved=   3.
 NSaved= 3 IEnMin= 3 EnMin= -3948.08929372969     IErMin= 3 ErrMin= 9.49D-05
 ErrMax= 9.49D-05 EMaxC= 1.00D-01 BMatC= 5.34D-05 BMatP= 1.70D-04
 IDIUse=1 WtCom= 1.00D+00 WtEn= 0.00D+00
 Coeff-Com:  0.235D+00 0.209D+00 0.556D+00
 Coeff:      0.235D+00 0.209D+00 0.556D+00
 Gap=     0.127 Goal=   None    Shift=    0.000
 Gap=     0.015 Goal=   None    Shift=    0.000
 RMSDP=7.56D-06 MaxDP=9.74D-04 DE=-1.51D-04 OVMax= 1.15D-02

 Cycle  13  Pass 1  IDiag  1:
 RMSU=  3.41D-06    CP:  1.00D+00  9.47D-01  7.49D-01
 E= -3948.08929138732     Delta-E=        0.000002342375 Rises=F Damp=F
 DIIS: error= 9.53D-05 at cycle   4 NSaved=   4.
 NSaved= 4 IEnMin= 3 EnMin= -3948.08929372969     IErMin= 3 ErrMin= 9.49D-05
 ErrMax= 9.53D-05 EMaxC= 1.00D-01 BMatC= 6.34D-05 BMatP= 5.34D-05
 IDIUse=1 WtCom= 1.00D+00 WtEn= 0.00D+00
 Coeff-Com:  0.601D-02 0.106D+00 0.511D+00 0.377D+00
 Coeff:      0.601D-02 0.106D+00 0.511D+00 0.377D+00
 Gap=     0.127 Goal=   None    Shift=    0.000
 Gap=     0.015 Goal=   None    Shift=    0.000
 RMSDP=5.27D-06 MaxDP=8.33D-04 DE= 2.34D-06 OVMax= 7.94D-03

 Cycle  14  Pass 1  IDiag  1:
 RMSU=  1.22D-06    CP:  1.00D+00  9.49D-01  8.46D-01  2.65D-01
 E= -3948.08930970392     Delta-E=       -0.000018316598 Rises=F Damp=F
 DIIS: error= 3.27D-05 at cycle   5 NSaved=   5.
 NSaved= 5 IEnMin= 5 EnMin= -3948.08930970392     IErMin= 5 ErrMin= 3.27D-05
 ErrMax= 3.27D-05 EMaxC= 1.00D-01 BMatC= 6.05D-06 BMatP= 5.34D-05
 IDIUse=1 WtCom= 1.00D+00 WtEn= 0.00D+00
 Coeff-Com: -0.908D-02 0.713D-01 0.314D+00 0.283D+00 0.341D+00
 Coeff:     -0.908D-02 0.713D-01 0.314D+00 0.283D+00 0.341D+00
 Gap=     0.127 Goal=   None    Shift=    0.000
 Gap=     0.015 Goal=   None    Shift=    0.000
 RMSDP=2.14D-06 MaxDP=2.97D-04 DE=-1.83D-05 OVMax= 3.34D-03

 Cycle  15  Pass 1  IDiag  1:
 RMSU=  7.95D-07    CP:  1.00D+00  9.47D-01  8.84D-01  4.29D-01  5.70D-01
 E= -3948.08931139885     Delta-E=       -0.000001694934 Rises=F Damp=F
 DIIS: error= 1.31D-05 at cycle   6 NSaved=   6.
 NSaved= 6 IEnMin= 6 EnMin= -3948.08931139885     IErMin= 6 ErrMin= 1.31D-05
 ErrMax= 1.31D-05 EMaxC= 1.00D-01 BMatC= 1.81D-06 BMatP= 6.05D-06
 IDIUse=1 WtCom= 1.00D+00 WtEn= 0.00D+00
 Coeff-Com: -0.815D-02 0.375D-01 0.823D-01 0.127D+00 0.305D+00 0.456D+00
 Coeff:     -0.815D-02 0.375D-01 0.823D-01 0.127D+00 0.305D+00 0.456D+00
 Gap=     0.127 Goal=   None    Shift=    0.000
 Gap=     0.015 Goal=   None    Shift=    0.000
 RMSDP=6.47D-07 MaxDP=7.46D-05 DE=-1.69D-06 OVMax= 5.52D-04

 Cycle  16  Pass 1  IDiag  1:
 RMSU=  2.91D-07    CP:  1.00D+00  9.47D-01  8.85D-01  4.27D-01  8.04D-01
                    CP:  9.80D-01
 E= -3948.08931190441     Delta-E=       -0.000000505563 Rises=F Damp=F
 DIIS: error= 9.65D-06 at cycle   7 NSaved=   7.
 NSaved= 7 IEnMin= 7 EnMin= -3948.08931190441     IErMin= 7 ErrMin= 9.65D-06
 ErrMax= 9.65D-06 EMaxC= 1.00D-01 BMatC= 6.17D-07 BMatP= 1.81D-06
 IDIUse=1 WtCom= 1.00D+00 WtEn= 0.00D+00
 Coeff-Com:  0.157D-02-0.191D-01-0.281D+00-0.148D+00 0.487D-01 0.349D+00
 Coeff-Com:  0.105D+01
 Coeff:      0.157D-02-0.191D-01-0.281D+00-0.148D+00 0.487D-01 0.349D+00
 Coeff:      0.105D+01
 Gap=     0.127 Goal=   None    Shift=    0.000
 Gap=     0.015 Goal=   None    Shift=    0.000
 RMSDP=1.14D-06 MaxDP=1.03D-04 DE=-5.06D-07 OVMax= 1.30D-03

 Cycle  17  Pass 1  IDiag  1:
 RMSU=  1.92D-07    CP:  1.00D+00  9.48D-01  9.00D-01  4.76D-01  1.11D+00
                    CP:  1.52D+00  1.12D+00
 E= -3948.08931227025     Delta-E=       -0.000000365835 Rises=F Damp=F
 DIIS: error= 4.79D-06 at cycle   8 NSaved=   8.
 NSaved= 8 IEnMin= 8 EnMin= -3948.08931227025     IErMin= 8 ErrMin= 4.79D-06
 ErrMax= 4.79D-06 EMaxC= 1.00D-01 BMatC= 1.76D-07 BMatP= 6.17D-07
 IDIUse=1 WtCom= 1.00D+00 WtEn= 0.00D+00
 Coeff-Com:  0.305D-02-0.233D-01-0.251D+00-0.150D+00-0.278D-01 0.170D+00
 Coeff-Com:  0.851D+00 0.427D+00
 Coeff:      0.305D-02-0.233D-01-0.251D+00-0.150D+00-0.278D-01 0.170D+00
 Coeff:      0.851D+00 0.427D+00
 Gap=     0.127 Goal=   None    Shift=    0.000
 Gap=     0.015 Goal=   None    Shift=    0.000
 RMSDP=3.48D-07 MaxDP=3.67D-05 DE=-3.66D-07 OVMax= 2.89D-04

 Cycle  18  Pass 1  IDiag  1:
 RMSU=  1.03D-07    CP:  1.00D+00  9.48D-01  8.97D-01  4.76D-01  1.22D+00
                    CP:  1.59D+00  1.40D+00  6.41D-01
 E= -3948.08931233933     Delta-E=       -0.000000069078 Rises=F Damp=F
 DIIS: error= 1.54D-06 at cycle   9 NSaved=   9.
 NSaved= 9 IEnMin= 9 EnMin= -3948.08931233933     IErMin= 9 ErrMin= 1.54D-06
 ErrMax= 1.54D-06 EMaxC= 1.00D-01 BMatC= 1.48D-08 BMatP= 1.76D-07
 IDIUse=1 WtCom= 1.00D+00 WtEn= 0.00D+00
 Coeff-Com:  0.115D-02-0.733D-02-0.643D-01-0.423D-01-0.258D-01 0.271D-01
 Coeff-Com:  0.222D+00 0.223D+00 0.667D+00
 Coeff:      0.115D-02-0.733D-02-0.643D-01-0.423D-01-0.258D-01 0.271D-01
 Coeff:      0.222D+00 0.223D+00 0.667D+00
 Gap=     0.127 Goal=   None    Shift=    0.000
 Gap=     0.015 Goal=   None    Shift=    0.000
 RMSDP=1.06D-07 MaxDP=1.06D-05 DE=-6.91D-08 OVMax= 1.18D-04

 Cycle  19  Pass 1  IDiag  1:
 RMSU=  4.82D-08    CP:  1.00D+00  9.48D-01  8.99D-01  4.80D-01  1.22D+00
                    CP:  1.62D+00  1.41D+00  8.25D-01  1.01D+00
 E= -3948.08931234637     Delta-E=       -0.000000007047 Rises=F Damp=F
 DIIS: error= 9.24D-07 at cycle  10 NSaved=  10.
 NSaved=10 IEnMin=10 EnMin= -3948.08931234637     IErMin=10 ErrMin= 9.24D-07
 ErrMax= 9.24D-07 EMaxC= 1.00D-01 BMatC= 8.06D-09 BMatP= 1.48D-08
 IDIUse=1 WtCom= 1.00D+00 WtEn= 0.00D+00
 Coeff-Com: -0.591D-03 0.484D-02 0.739D-01 0.389D-01-0.136D-01-0.647D-01
 Coeff-Com: -0.244D+00-0.313D-01 0.529D+00 0.707D+00
 Coeff:     -0.591D-03 0.484D-02 0.739D-01 0.389D-01-0.136D-01-0.647D-01
 Coeff:     -0.244D+00-0.313D-01 0.529D+00 0.707D+00
 Gap=     0.127 Goal=   None    Shift=    0.000
 Gap=     0.015 Goal=   None    Shift=    0.000
 RMSDP=8.03D-08 MaxDP=8.15D-06 DE=-7.05D-09 OVMax= 4.23D-05

 Cycle  20  Pass 1  IDiag  1:
 RMSU=  3.04D-08    CP:  1.00D+00  9.48D-01  9.00D-01  4.81D-01  1.22D+00
                    CP:  1.63D+00  1.44D+00  9.19D-01  1.34D+00  9.70D-01
 E= -3948.08931235169     Delta-E=       -0.000000005315 Rises=F Damp=F
 DIIS: error= 3.89D-07 at cycle  11 NSaved=  11.
 NSaved=11 IEnMin=11 EnMin= -3948.08931235169     IErMin=11 ErrMin= 3.89D-07
 ErrMax= 3.89D-07 EMaxC= 1.00D-01 BMatC= 1.87D-09 BMatP= 8.06D-09
 IDIUse=1 WtCom= 1.00D+00 WtEn= 0.00D+00
 Coeff-Com: -0.611D-03 0.430D-02 0.575D-01 0.316D-01-0.803D-03-0.436D-01
 Coeff-Com: -0.185D+00-0.748D-01 0.116D+00 0.412D+00 0.683D+00
 Coeff:     -0.611D-03 0.430D-02 0.575D-01 0.316D-01-0.803D-03-0.436D-01
 Coeff:     -0.185D+00-0.748D-01 0.116D+00 0.412D+00 0.683D+00
 Gap=     0.127 Goal=   None    Shift=    0.000
 Gap=     0.015 Goal=   None    Shift=    0.000
 RMSDP=3.82D-08 MaxDP=3.31D-06 DE=-5.32D-09 OVMax= 1.69D-05

 Cycle  21  Pass 1  IDiag  1:
 RMSU=  1.68D-08    CP:  1.00D+00  9.48D-01  9.00D-01  4.80D-01  1.22D+00
                    CP:  1.62D+00  1.45D+00  9.61D-01  1.45D+00  1.23D+00
                    CP:  1.00D+00
 E= -3948.08931235284     Delta-E=       -0.000000001153 Rises=F Damp=F
 DIIS: error= 3.08D-07 at cycle  12 NSaved=  12.
 NSaved=12 IEnMin=12 EnMin= -3948.08931235284     IErMin=12 ErrMin= 3.08D-07
 ErrMax= 3.08D-07 EMaxC= 1.00D-01 BMatC= 6.95D-10 BMatP= 1.87D-09
 IDIUse=1 WtCom= 1.00D+00 WtEn= 0.00D+00
 Coeff-Com: -0.266D-03 0.147D-02 0.201D-01 0.110D-01 0.239D-02-0.140D-01
 Coeff-Com: -0.636D-01-0.427D-01-0.692D-01 0.105D+00 0.472D+00 0.578D+00
 Coeff:     -0.266D-03 0.147D-02 0.201D-01 0.110D-01 0.239D-02-0.140D-01
 Coeff:     -0.636D-01-0.427D-01-0.692D-01 0.105D+00 0.472D+00 0.578D+00
 Gap=     0.127 Goal=   None    Shift=    0.000
 Gap=     0.015 Goal=   None    Shift=    0.000
 RMSDP=2.55D-08 MaxDP=3.57D-06 DE=-1.15D-09 OVMax= 2.86D-05

 Cycle  22  Pass 1  IDiag  1:
 RMSU=  9.54D-09    CP:  1.00D+00  9.48D-01  9.00D-01  4.79D-01  1.21D+00
                    CP:  1.62D+00  1.45D+00  9.78D-01  1.50D+00  1.33D+00
                    CP:  1.29D+00  7.45D-01
 E= -3948.08931235280     Delta-E=        0.000000000036 Rises=F Damp=F
 DIIS: error= 1.99D-07 at cycle  13 NSaved=  13.
 NSaved=13 IEnMin=12 EnMin= -3948.08931235284     IErMin=13 ErrMin= 1.99D-07
 ErrMax= 1.99D-07 EMaxC= 1.00D-01 BMatC= 3.51D-10 BMatP= 6.95D-10
 IDIUse=1 WtCom= 1.00D+00 WtEn= 0.00D+00
 Coeff-Com:  0.245D-04-0.514D-03-0.635D-02-0.344D-02 0.243D-02 0.726D-02
 Coeff-Com:  0.219D-01-0.342D-02-0.113D+00-0.745D-01 0.121D+00 0.479D+00
 Coeff-Com:  0.570D+00
 Coeff:      0.245D-04-0.514D-03-0.635D-02-0.344D-02 0.243D-02 0.726D-02
 Coeff:      0.219D-01-0.342D-02-0.113D+00-0.745D-01 0.121D+00 0.479D+00
 Coeff:      0.570D+00
 Gap=     0.127 Goal=   None    Shift=    0.000
 Gap=     0.015 Goal=   None    Shift=    0.000
 RMSDP=1.43D-08 MaxDP=1.34D-06 DE= 3.64D-11 OVMax= 8.32D-06

 Cycle  23  Pass 1  IDiag  1:
 RMSU=  5.20D-09    CP:  1.00D+00  9.48D-01  9.00D-01  4.79D-01  1.21D+00
                    CP:  1.62D+00  1.45D+00  9.86D-01  1.53D+00  1.38D+00
                    CP:  1.34D+00  1.13D+00  7.72D-01
 E= -3948.08931235313     Delta-E=       -0.000000000327 Rises=F Damp=F
 DIIS: error= 6.93D-08 at cycle  14 NSaved=  14.
 NSaved=14 IEnMin=14 EnMin= -3948.08931235313     IErMin=14 ErrMin= 6.93D-08
 ErrMax= 6.93D-08 EMaxC= 1.00D-01 BMatC= 7.56D-11 BMatP= 3.51D-10
 IDIUse=1 WtCom= 1.00D+00 WtEn= 0.00D+00
 Coeff-Com:  0.112D-03-0.953D-03-0.113D-01-0.625D-02-0.294D-03 0.999D-02
 Coeff-Com:  0.353D-01 0.165D-01-0.472D-01-0.788D-01-0.884D-01 0.989D-01
 Coeff-Com:  0.380D+00 0.693D+00
 Coeff:      0.112D-03-0.953D-03-0.113D-01-0.625D-02-0.294D-03 0.999D-02
 Coeff:      0.353D-01 0.165D-01-0.472D-01-0.788D-01-0.884D-01 0.989D-01
 Coeff:      0.380D+00 0.693D+00
 Gap=     0.127 Goal=   None    Shift=    0.000
 Gap=     0.015 Goal=   None    Shift=    0.000
 RMSDP=7.56D-09 MaxDP=6.97D-07 DE=-3.27D-10 OVMax= 6.12D-06

 SCF Done:  E(UB3LYP) =  -3948.08931235     A.U. after   23 cycles
             Convg  =    0.7557D-08             -V/T =  2.0096
 <Sx>= 0.0000 <Sy>= 0.0000 <Sz>= 0.5000 <S**2>= 0.7572 S= 0.5036
 <L.S>= 0.000000000000E+00
 KE= 3.910733136963D+03 PE=-4.342567699866D+04 EE= 1.841538566536D+04
 Annihilation of the first spin contaminant:
 S**2 before annihilation     0.7572,   after     0.7500
 DiagDN has N=  1531 LTot=  4627 but NE2=     3 cannot use DSYEVD.
 Leave Link  502 at Sat Mar 28 20:00:57 2015, MaxMem= 1073741824 cpu:   54628.4
 (Enter /opt/g09/l601.exe)
 Copying SCF densities to generalized density rwf, IOpCl= 1 IROHF=0.

 **********************************************************************

            Population analysis using the SCF density.

 **********************************************************************

 Orbital symmetries:
 Alpha Orbitals:
       Occupied  (A) (A) (A) (A) (A) (A) (A) (A) (A) (A) (A) (A)
                 (A) (A) (A) (A) (A) (A) (A) (A) (A) (A) (A) (A)
                 (A) (A) (A) (A) (A) (A) (A) (A) (A) (A) (A) (A)
                 (A) (A) (A) (A) (A) (A) (A) (A) (A) (A) (A) (A)
                 (A) (A) (A) (A) (A) (A) (A) (A) (A) (A) (A) (A)
                 (A) (A) (A) (A) (A) (A) (A) (A) (A) (A) (A) (A)
                 (A) (A) (A) (A) (A) (A) (A) (A) (A) (A) (A) (A)
                 (A) (A) (A) (A) (A) (A) (A) (A) (A) (A) (A) (A)
                 (A) (A) (A) (A) (A) (A) (A) (A) (A) (A) (A) (A)
                 (A) (A) (A) (A) (A) (A) (A) (A) (A) (A) (A) (A)
[...]
    32  C    0.000000   0.000000   0.000000   0.000000   0.000000
    33  C   -0.000001  -0.000105   0.000000   0.000004  -0.000001
    34  C    0.000000   0.000000   0.000000   0.000000   0.000000
    35  C    0.000000   0.000000   0.000000   0.000000   0.000000
    36  C    0.000000   0.000000   0.000000   0.000000   0.000000
    37  C    0.000000   0.000000   0.000000   0.000000   0.000000
    38  C    0.000000   0.000000   0.000000   0.000000   0.000000
    39  C    0.000000   0.000000   0.000000   0.000000   0.000000
    40  C    0.000000   0.000000   0.000000   0.000000   0.000000
    41  C    0.000000   0.000000   0.000000   0.000000   0.000000
    42  C    0.000000   0.000000   0.000000   0.000000   0.000000
    43  C    0.000000   0.000000   0.000000   0.000000   0.000000
    44  C    0.000000   0.000000   0.000000   0.000000   0.000000
    45  C    0.000000   0.000000   0.000000   0.000000   0.000000
    46  C    0.000000   0.000000   0.000000   0.000000   0.000000
    47  C    0.000000   0.000000   0.000000   0.000000   0.000000
    48  C    0.000000   0.000000   0.000000   0.000000   0.000000
    49  C    0.000000   0.000000   0.000000   0.000000   0.000000
    50  C    0.000000   0.000000   0.000000   0.000000   0.000000
    51  C    0.000000   0.000000   0.000000   0.000000   0.000000
    52  C    0.000000   0.000000   0.000000   0.000000   0.000000
    53  C    0.000000   0.000000   0.000000   0.000000   0.000000
    54  C    0.000000   0.000000   0.000000   0.000000   0.000000
    55  C    0.000000   0.000000   0.000000   0.000000   0.000000
    56  C    0.000000   0.000000   0.000000   0.000000   0.000000
    57  C    0.000000   0.000000   0.000000   0.000000   0.000000
    58  C    0.000001   0.000024   0.000000  -0.000001   0.000001
    59  C   -0.000001  -0.000007   0.000000   0.000000   0.000000
    60  C    0.000011   0.000010   0.000000   0.000005   0.000006
    61  C    0.000198   0.000055  -0.000004  -0.000111  -0.000045
    62  C    0.000001  -0.000015   0.000000  -0.000081  -0.000066
    63  C    0.000000  -0.000004   0.000000   0.000001  -0.000001
    64  C    0.000000   0.000001   0.000000   0.000000   0.000000
    65  C    0.000000   0.000001   0.000000   0.000000   0.000000
    66  C    0.000000   0.000003   0.000000  -0.000001   0.000000
    67  C   -0.000001  -0.000025   0.000000   0.000005   0.000000
    68  C    0.000000   0.000000   0.000000   0.000000   0.000000
    69  C    0.000000   0.000000   0.000000   0.000000   0.000000
    70  C    0.000000   0.000000   0.000000   0.000000   0.000000
    71  C    0.000000   0.000000   0.000000   0.000000   0.000000
    72  C    0.000000   0.000000   0.000000   0.000000   0.000000
    73  C    0.000000   0.000000   0.000000   0.000000   0.000000
    74  C    0.000000   0.000000   0.000000   0.000000   0.000000
    75  C    0.000000   0.000000   0.000000   0.000000   0.000000
    76  C    0.000000   0.000000   0.000000   0.000000   0.000000
    77  C    0.000000   0.000000   0.000000   0.000000   0.000000
    78  H    0.000000   0.000000   0.000000   0.000000   0.000000
    79  H    0.000000   0.000000   0.000000   0.000000   0.000000
    80  H    0.000000   0.000000   0.000000   0.000000   0.000000
    81  H    0.000000   0.000000   0.000000   0.000000   0.000000
    82  H    0.000000   0.000000   0.000000   0.000000   0.000000
    83  H    0.000000   0.000000   0.000000   0.000000   0.000000
    84  H    0.000000   0.000000   0.000000   0.000000   0.000000
    85  H    0.000000   0.000000   0.000000   0.000000   0.000000
    86  H    0.000000   0.000000   0.000000   0.000000   0.000000
    87  H    0.000000   0.000000   0.000000   0.000000   0.000000
    88  H    0.000000   0.000000   0.000000   0.000000   0.000000
    89  H    0.000000   0.000000   0.000000   0.000000   0.000000
    90  H    0.000000   0.000000   0.000000   0.000000   0.000000
    91  H    0.000000   0.000000   0.000000   0.000000   0.000000
    92  H    0.000000   0.000000   0.000000   0.000000   0.000000
    93  H    0.000000   0.000000   0.000000   0.000000   0.000000
    94  O    0.000000   0.000000   0.000000   0.000000   0.000000
    95  H    0.000000   0.000000   0.000000   0.000000   0.000000
    96  H    0.000000   0.000000   0.000000   0.000000   0.000000
    97  O    0.000000   0.000000   0.000000   0.000000   0.000000
    98  H    0.000000   0.000000   0.000000   0.000000   0.000000
    99  O    0.000000   0.000001   0.000000   0.000000   0.000000
   100  H    0.000000   0.000000   0.000000   0.000000   0.000000
   101  H    0.000000  -0.000004   0.000000   0.000000   0.000000
   102  O   -0.000334   0.000003  -0.000004   0.000080   0.000038
   103  H   -0.000001   0.000001   0.000000   0.000000   0.000000
   104  H    0.000000   0.000000   0.000000   0.000000   0.000000
   105  H    0.000000   0.000001   0.000000   0.000000   0.000000
   106  H    0.000000   0.000000   0.000000   0.000000   0.000000
   107  H    0.000000   0.000000   0.000000   0.000000   0.000000
   108  H    0.000000   0.000000   0.000000   0.000000   0.000000
   109  H    0.000000   0.000000   0.000000   0.000000   0.000000
   110  O    0.000000   0.000000   0.000000   0.000000   0.000000
   111  H    0.000000   0.000000   0.000000   0.000000   0.000000
   112  O    0.000000   0.000000   0.000000   0.000000   0.000000
   113  H    0.000000   0.000000   0.000000   0.000000   0.000000
   114  H    0.000000   0.000000   0.000000   0.000000   0.000000
   115  H    0.000000   0.000000   0.000000   0.000000   0.000000
   116  H    0.000000   0.000000   0.000000   0.000000   0.000000
   117  H    0.000000   0.000000   0.000000   0.000000   0.000000
   118  H    0.000000   0.000000   0.000000   0.000000   0.000000
   119  H    0.000000   0.000000   0.000000   0.000000   0.000000
   120  O    0.000000   0.000000   0.000000   0.000000   0.000000
   121  H    0.000000   0.000000   0.000000   0.000000   0.000000
   122  H    0.000000   0.000000   0.000000   0.000000   0.000000
   123  H    0.000000   0.000000   0.000000   0.000000   0.000000
   124  H    0.000000   0.000000   0.000000   0.000000   0.000000
   125  C    0.000000   0.000000   0.000000   0.000000   0.000000
   126  C    0.000000   0.000000   0.000000   0.000000   0.000000
   127  C    0.000000   0.000000   0.000000   0.000000   0.000000
   128  C    0.000000   0.000000   0.000000   0.000000   0.000000
   129  H    0.000000   0.000000   0.000000   0.000000   0.000000
   130  H    0.000000   0.000000   0.000000   0.000000   0.000000
   131  H    0.000000   0.000000   0.000000   0.000000   0.000000
   132  H    0.000000   0.000000   0.000000   0.000000   0.000000
   133  H    0.000000   0.000000   0.000000   0.000000   0.000000
   134  H    0.000000   0.000000   0.000000   0.000000   0.000000
   135  H    0.000000   0.000000   0.000000   0.000000   0.000000
   136  H    0.000000   0.000000   0.000000   0.000000   0.000000
   137  H    0.000000   0.000000   0.000000   0.000000   0.000000
   138  H    0.000000   0.000000   0.000000   0.000000   0.000000
   139  H    0.000000   0.000000   0.000000   0.000000   0.000000
   140  H    0.000000   0.000000   0.000000   0.000000   0.000000
   141  H    0.000000   0.000000   0.000000   0.000000   0.000000
   142  O    0.000000   0.000000   0.000000   0.000000   0.000000
   143  C    0.000000   0.000000   0.000000   0.000000   0.000000
   144  H    0.000000   0.000000   0.000000   0.000000   0.000000
   145  H    0.000000   0.000000   0.000000   0.000000   0.000000
   146  H    0.000000   0.000000   0.000000   0.000000   0.000000
   147  C    0.000000   0.000000   0.000000   0.000000   0.000000
   148  H    0.000000   0.000000   0.000000   0.000000   0.000000
   149  H    0.000000   0.000000   0.000000   0.000000   0.000000
   150  H    0.000000   0.000000   0.000000   0.000000   0.000000
   151  H    0.000000   0.000000   0.000000   0.000000   0.000000
   152  H    0.000000   0.000000   0.000000   0.000000   0.000000
   153  C    0.000000   0.000000   0.000000   0.000000   0.000000
   154  H    0.000000   0.000000   0.000000   0.000000   0.000000
   155  H    0.000000   0.000000   0.000000   0.000000   0.000000
   156  H    0.000000   0.000000   0.000000   0.000000   0.000000
   157  C   -0.000160  -0.000003   0.000010   0.000158   0.000178
   158  H   -0.000003  -0.001244  -0.000001   0.000006   0.000008
   159  H    0.000010  -0.000001   0.000007  -0.000010   0.000005
   160  H    0.000158   0.000006  -0.000010  -0.000197   0.000105
   161  H    0.000178   0.000008   0.000005   0.000105  -0.000273
 Mulliken atomic spin densities:
              1
     1  C   -0.003658
     2  C    0.009058
     3  C    0.041069
     4  C    0.052564
     5  C    0.006218
     6  C   -0.000126
     7  C    0.020681
     8  C    0.004990
     9  C    0.007759
    10  C    0.003005
    11  C    0.004175
    12  C    0.015544
    13  C   -0.005561
    14  C   -0.005784
    15  C    0.038787
    16  C    0.021986
    17  C    0.010644
    18  C    0.003803
    19  C    0.032186
    20  C    0.026939
    21  C    0.006606
    22  C    0.003111
    23  C    0.003680
    24  C    0.009764
    25  C   -0.003718
    26  N    0.042455
    27  N    0.144702
    28  N    0.128494
    29  N    0.030971
    30  C   -0.001669
    31  C   -0.014041
    32  C   -0.001828
    33  C   -0.010080
    34  C   -0.005054
    35  C   -0.001630
    36  C   -0.016354
    37  C   -0.007810
    38  C    0.056110
    39  C   -0.027298
    40  C    0.069349
    41  C   -0.021177
    42  C    0.032075
    43  C    0.012976
    44  C   -0.007007
    45  C    0.017106
    46  C   -0.006397
    47  C    0.012607
    48  C    0.007954
    49  C   -0.004654
    50  C    0.010178
    51  C   -0.003154
    52  C    0.006800
    53  C    0.026986
    54  C   -0.015743
    55  C    0.034400
    56  C   -0.011162
    57  C    0.024008
    58  C    0.052980
    59  C   -0.025949
    60  C    0.062271
    61  C   -0.017092
    62  C    0.024874
    63  C    0.027652
    64  C   -0.015684
    65  C    0.034558
    66  C   -0.010636
    67  C    0.024035
    68  C    0.007020
    69  C   -0.004979
    70  C    0.018439
    71  C   -0.006846
    72  C    0.014023
    73  C    0.008504
    74  C   -0.004427
    75  C    0.012253
    76  C   -0.005228
    77  C    0.008877
    78  H    0.000004
    79  H   -0.000327
    80  H   -0.001412
    81  H   -0.000404
    82  H    0.000055
    83  H   -0.001897
    84  H   -0.000151
    85  H   -0.000209
    86  H    0.000173
    87  H   -0.000738
    88  H   -0.000631
    89  H   -0.000246
    90  H   -0.000571
    91  H    0.000273
    92  H    0.001002
    93  H   -0.002487
    94  O   -0.000564
    95  H   -0.000627
    96  H    0.000248
    97  O    0.000231
    98  H    0.000703
    99  O    0.004753
   100  H    0.000504
   101  H   -0.001176
   102  O    0.000404
   103  H   -0.002775
   104  H    0.001061
   105  H   -0.002318
   106  H   -0.000458
   107  H    0.000148
   108  H   -0.000557
   109  H    0.000194
   110  O    0.000434
   111  H    0.000693
   112  O    0.005873
   113  H   -0.001592
   114  H    0.000622
   115  H   -0.001155
   116  H   -0.000337
   117  H    0.000190
   118  H   -0.000471
   119  H    0.000203
   120  O    0.002014
   121  H   -0.003074
   122  H   -0.000763
   123  H   -0.001598
   124  H   -0.000817
   125  C    0.000276
   126  C   -0.000323
   127  C   -0.000173
   128  C   -0.000517
   129  H    0.000018
   130  H   -0.000015
   131  H   -0.000095
   132  H   -0.000002
   133  H    0.000289
   134  H    0.000377
   135  H   -0.000001
   136  H    0.000179
   137  H    0.000113
   138  H    0.000002
   139  H    0.000524
   140  H    0.000353
   141  H   -0.001455
   142  O   -0.000316
   143  C    0.000144
   144  H   -0.000093
   145  H   -0.000132
   146  H    0.000001
   147  C    0.000076
   148  H   -0.000005
   149  H   -0.000052
   150  H   -0.000062
   151  H   -0.000578
   152  H   -0.000333
   153  C    0.000027
   154  H    0.000062
   155  H    0.000003
   156  H   -0.000046
   157  C    0.000056
   158  H   -0.001130
   159  H    0.000003
   160  H   -0.000041
   161  H   -0.000041
 Sum of Mulliken atomic spin densities =   1.00000
 Electronic spatial extent (au):  <R**2>=          93624.3664
 Charge=              1.0000 electrons
 Dipole moment (field-independent basis, Debye):
    X=             -4.4814    Y=             -6.1001    Z=             -0.0643  Tot=              7.5695
 Quadrupole moment (field-independent basis, Debye-Ang):
   XX=           -373.1092   YY=           -418.1464   ZZ=           -453.9951
   XY=            -13.1580   XZ=            -13.0795   YZ=              3.5945
 Traceless Quadrupole moment (field-independent basis, Debye-Ang):
   XX=             41.9744   YY=             -3.0628   ZZ=            -38.9115
   XY=            -13.1580   XZ=            -13.0795   YZ=              3.5945
 Octapole moment (field-independent basis, Debye-Ang**2):
  XXX=           -302.8535  YYY=           -436.0124  ZZZ=            -39.1857  XYY=           -146.2757
  XXY=           -113.6205  XXZ=            -23.6015  XZZ=            -68.0847  YZZ=            -42.6195
  YYZ=            -94.8256  XYZ=            -99.5515
 Hexadecapole moment (field-independent basis, Debye-Ang**3):
 XXXX=         -51675.1911 YYYY=         -45830.7119 ZZZZ=         -14465.2817 XXXY=          -1187.1530
 XXXZ=           -513.0851 YYYX=            352.0450 YYYZ=            -69.5530 ZZZX=           -291.8783
 ZZZY=            106.7485 XXYY=         -15813.9238 XXZZ=         -10740.0568 YYZZ=          -9270.4507
 XXYZ=            664.7373 YYXZ=            358.9921 ZZXY=            270.0755
 N-N= 1.715146888398D+04 E-N=-6.510759482462D+04  KE= 5.865208518974D+03
 Leave Link  601 at Sat Mar 28 20:01:01 2015, MaxMem= 1073741824 cpu:      87.3
 (Enter /opt/g09/l9999.exe)
 1\1\GINC-CHPC-SCANDIUM\SP\UB3LYP\6-31G(d)\C81H68N4O8(1+,2)\JARVIST\28-
 Mar-2015\0\\#p sp b3lyp/6-31g*\\B3lyp auto opt job - neutral state\\1,
 2\C,0,-0.094385,0.077291,0.009279\C,0,-0.965358,0.786443,1.051469\C,0,
 -0.551952,0.440338,2.356318\C,0,0.602265,-0.45589,2.266202\C,0,0.87806
 3,-0.702021,0.908739\C,0,-0.874855,-0.822297,-0.954533\C,0,-0.549938,-
 0.51987,-2.290784\C,0,0.439161,0.561745,-2.300743\C,0,0.67354,0.969126
 ,-0.971461\C,0,-1.787968,-1.817198,-0.643873\C,0,-2.392537,-2.543434,-
 1.686786\C,0,-2.066472,-2.241277,-3.022344\C,0,-1.155945,-1.232995,-3.
 327688\C,0,1.406323,-1.043489,3.246563\C,0,2.46552,-1.864466,2.865374\
 C,0,2.746643,-2.101315,1.505578\C,0,1.934279,-1.509331,0.520375\C,0,-2
 .063526,1.604196,0.842285\C,0,-2.776302,2.093407,1.953352\C,0,-2.35736
 3,1.75792,3.250887\C,0,-1.253101,0.932276,3.45742\C,0,1.15393,1.149322
 ,-3.3473\C,0,2.110426,2.12241,-3.054279\C,0,2.338108,2.530354,-1.73231
 1\C,0,1.595839,1.963322,-0.683506\N,0,-3.345104,-3.559764,-1.407742\N,
 0,3.825779,-2.936084,1.118635\N,0,-3.936011,2.894069,1.759912\N,0,3.37
 5965,3.483602,-1.44986\C,0,4.709323,2.995231,-1.380028\C,0,-3.882951,4
 .047512,0.934487\C,0,2.992352,4.692769,-0.80285\C,0,-5.065721,2.6839,2
 .59832\C,0,-3.171663,-4.452499,-0.322016\C,0,-4.550886,-3.587335,-2.16
 5212\C,0,5.063756,-2.905968,1.809546\C,0,3.609428,-3.894477,0.087334\C
 ,0,5.789758,-4.083692,2.022755\C,0,7.019288,-4.024442,2.683027\C,0,7.5
 31482,-2.82065,3.150545\C,0,6.800871,-1.640469,2.939544\C,0,5.57858,-1
 .67793,2.26624\C,0,-4.283192,-4.90168,0.415562\C,0,-4.095997,-5.788757
 ,1.469058\C,0,-2.823811,-6.240387,1.831405\C,0,-1.722112,-5.788168,1.0
 95286\C,0,-1.89446,-4.908406,0.022291\C,0,-4.95055,-4.767097,-2.840962
 \C,0,-6.141087,-4.774221,-3.575533\C,0,-6.918275,-3.616341,-3.670999\C
 ,0,-6.519992,-2.446036,-3.029833\C,0,-5.345985,-2.442888,-2.275129\C,0
 ,4.463233,-3.943743,-1.042318\C,0,4.237518,-4.90099,-2.037261\C,0,3.15
 3787,-5.778842,-1.940771\C,0,2.290614,-5.714508,-0.849786\C,0,2.531292
 ,-4.781298,0.159638\C,0,-2.712937,4.81054,0.833245\C,0,-2.700664,5.950
 304,0.025273\C,0,-3.833433,6.346453,-0.676693\C,0,-5.004875,5.580159,-
 0.576753\C,0,-5.031365,4.432472,0.216797\C,0,-5.682253,1.407972,2.6603
 56\C,0,-6.784469,1.211076,3.498353\C,0,-7.299529,2.270179,4.251445\C,0
 ,-6.712338,3.530878,4.181739\C,0,-5.59623,3.725303,3.366702\C,0,1.8893
 91,5.395887,-1.320537\C,0,1.472057,6.58281,-0.71764\C,0,2.144776,7.080
 023,0.407609\C,0,3.236906,6.378619,0.90604\C,0,3.667735,5.187866,0.317
 091\C,0,4.976641,1.670029,-0.996239\C,0,6.2798,1.17642,-0.939498\C,0,7
 .357274,2.007484,-1.248787\C,0,7.111025,3.323362,-1.641279\C,0,5.80866
 ,3.816667,-1.728398\H,0,1.787741,2.275927,0.33908\H,0,-2.401353,1.8495
 96,-0.159849\H,0,-2.910947,2.147236,4.099579\H,0,-0.94787,0.681148,4.4
 70147\H,0,1.208998,-0.876177,4.302564\H,0,3.088375,-2.332052,3.620858\
 H,0,0.988559,0.841976,-4.37671\H,0,2.701344,2.56927,-3.848456\H,0,-0.9
 16914,-1.019285,-4.36641\H,0,-2.534953,-2.810757,-3.818488\H,0,2.14966
 8,-1.684441,-0.529172\H,0,-2.040141,-2.038226,0.388285\H,0,-5.278171,-
 4.555334,0.15757\H,0,-4.958511,-6.131061,2.035475\H,0,7.579005,-4.9419
 32,2.846824\H,0,5.394146,-5.032354,1.676595\O,0,-0.426725,-6.167933,1.
 335563\H,0,4.520674,4.651186,0.717122\H,0,3.763413,6.761029,1.776602\O
 ,0,0.418885,7.336773,-1.166336\H,0,-7.258547,0.23774,3.552571\O,0,-5.1
 40433,0.440646,1.868817\H,0,-7.104983,4.356859,4.767621\H,0,-5.118414,
 4.698757,3.312294\O,0,-6.070321,6.031648,-1.306384\H,0,-3.841992,7.237
 353,-1.296289\H,0,-1.7944,6.546691,-0.036519\H,0,-1.828411,4.524198,1.
 390971\H,0,4.148612,1.019692,-0.736468\H,0,6.440554,0.145021,-0.636131
 \H,0,8.37705,1.636754,-1.195316\H,0,7.922059,3.997648,-1.900641\O,0,5.
 645061,5.132857,-2.100726\H,0,4.888916,-4.952543,-2.902263\O,0,5.46598
 6,-3.020937,-1.079771\H,0,2.989015,-6.506187,-2.731244\H,0,1.439958,-6
 .383187,-0.76398\H,0,1.864726,-4.727247,1.014663\H,0,-5.023146,-1.5412
 58,-1.762686\H,0,-7.120013,-1.543837,-3.103076\H,0,-7.834187,-3.638599
 ,-4.255164\H,0,-6.457625,-5.672989,-4.092436\O,0,-4.113733,-5.834071,-
 2.724479\H,0,8.480338,-2.764174,3.673729\H,0,-2.707853,-6.923563,2.664
 106\H,0,-8.162892,2.099169,4.888627\H,0,1.804536,8.006591,0.858164\C,0
 ,5.122009,5.337529,-3.41237\C,0,-5.647879,-0.880684,1.968952\C,0,-4.47
 8009,-7.054119,-3.348628\C,0,6.375366,-3.055977,-2.167384\H,0,5.771336
 ,4.876113,-4.168904\H,0,5.098584,6.419025,-3.564275\H,0,4.106854,4.936
 714,-3.509585\H,0,-5.039867,-1.487406,1.295774\H,0,-6.699487,-0.935257
 ,1.656453\H,0,-5.554817,-1.270613,2.990784\H,0,-3.67812,-7.757741,-3.1
 12106\H,0,-4.554172,-6.943624,-4.438612\H,0,-5.428533,-7.439944,-2.957
 473\H,0,7.08397,-2.245498,-1.988933\H,0,5.866438,-2.886382,-3.125521\H
 ,0,6.916847,-4.010071,-2.209191\H,0,5.019462,-0.771436,2.07366\O,0,7.3
 76753,-0.496979,3.416732\C,0,6.693751,0.73309,3.225277\H,0,5.707469,0.
 726471,3.708002\H,0,6.571834,0.967835,2.159922\H,0,7.318541,1.496505,3
 .693148\C,0,-0.17837,-7.074555,2.398674\H,0,0.900436,-7.239945,2.40393
 9\H,0,-0.692485,-8.031882,2.241012\H,0,-0.485889,-6.655692,3.365733\H,
 0,-1.020765,-4.595096,-0.537629\H,0,1.377772,4.998964,-2.188238\C,0,-0
 .174933,6.984194,-2.407737\H,0,0.570633,6.965362,-3.213496\H,0,-0.9144
 95,7.759855,-2.616087\H,0,-0.680918,6.012209,-2.355845\C,0,-7.287139,5
 .308152,-1.236087\H,0,-5.922626,3.822869,0.29531\H,0,-7.99259,5.845502
 ,-1.873164\H,0,-7.67898,5.271885,-0.210826\H,0,-7.170774,4.282097,-1.6
 10523\\Version=EM64L-G09RevA.02\State=2-A\HF=-3948.0893124\S2=0.757203
 \S2-1=0.\S2A=0.750046\RMSD=7.557e-09\Dipole=-1.7631103,-2.3999583,-0.0
 252998\Quadrupole=31.2069156,-2.2771313,-28.9297843,-9.7826282,-9.7242
 593,2.6723995\PG=C01 [X(C81H68N4O8)]\\@


 THE ... SCIENTISTS WERE WRONG ... THE MOST PERSISTENT PRINCIPLES 
 OF THE UNIVERSE WERE ACCIDENT AND ERROR.

                          -- FRANK HERBERT IN DUNE
 Job cpu time:  0 days 15 hours 31 minutes 52.8 seconds.
 File lengths (MBytes):  RWF=   2185 Int=      0 D2E=      0 Chk=    109 Scr=      1
 Normal termination of Gaussian 09 at Sat Mar 28 20:01:01 2015.
