 Entering Gaussian System, Link 0=g09
 Input=Spiro_Meta_Ortho_NEUTRAL.com
 Output=Spiro_Meta_Ortho_NEUTRAL.log
 Initial command:
 /opt/g09/l1.exe /work/jarvist/2014-07_SPIRO/2015-03_extra_one/Gau-48255.inp -scrdir=/work/jarvist/2014-07_SPIRO/2015-03_extra_one/
 Default is to use a total of   8 processors:
                                8 via shared-memory
                                1 via Linda
 Entering Link 1 = /opt/g09/l1.exe PID=     48257.
  
 Copyright (c) 1988,1990,1992,1993,1995,1998,2003,2009, Gaussian, Inc.
                  All Rights Reserved.
  
 This is part of the Gaussian(R) 09 program.  It is based on
 the Gaussian(R) 03 system (copyright 2003, Gaussian, Inc.),
 the Gaussian(R) 98 system (copyright 1998, Gaussian, Inc.),
 the Gaussian(R) 94 system (copyright 1995, Gaussian, Inc.),
 the Gaussian 92(TM) system (copyright 1992, Gaussian, Inc.),
 the Gaussian 90(TM) system (copyright 1990, Gaussian, Inc.),
 the Gaussian 88(TM) system (copyright 1988, Gaussian, Inc.),
 the Gaussian 86(TM) system (copyright 1986, Carnegie Mellon
 University), and the Gaussian 82(TM) system (copyright 1983,
 Carnegie Mellon University). Gaussian is a federally registered
 trademark of Gaussian, Inc.
  
 This software contains proprietary and confidential information,
 including trade secrets, belonging to Gaussian, Inc.
  
 This software is provided under written license and may be
 used, copied, transmitted, or stored only in accord with that
 written license.
  
 The following legend is applicable only to US Government
 contracts under FAR:
  
                    RESTRICTED RIGHTS LEGEND
  
 Use, reproduction and disclosure by the US Government is
 subject to restrictions as set forth in subparagraphs (a)
 and (c) of the Commercial Computer Software - Restricted
 Rights clause in FAR 52.227-19.
  
 Gaussian, Inc.
 340 Quinnipiac St., Bldg. 40, Wallingford CT 06492
  
  
 ---------------------------------------------------------------
 Warning -- This program may not be used in any manner that
 competes with the business of Gaussian, Inc. or will provide
 assistance to any competitor of Gaussian, Inc.  The licensee
 of this program is prohibited from giving any competitor of
 Gaussian, Inc. access to this program.  By using this program,
 the user acknowledges that Gaussian, Inc. is engaged in the
 business of creating and licensing software in the field of
 computational chemistry and represents and warrants to the
 licensee that it is not a competitor of Gaussian, Inc. and that
 it will not use this program in any manner prohibited above.
 ---------------------------------------------------------------
  

 Cite this work as:
 Gaussian 09, Revision A.02,
 M. J. Frisch, G. W. Trucks, H. B. Schlegel, G. E. Scuseria, 
 M. A. Robb, J. R. Cheeseman, G. Scalmani, V. Barone, B. Mennucci, 
 G. A. Petersson, H. Nakatsuji, M. Caricato, X. Li, H. P. Hratchian, 
 A. F. Izmaylov, J. Bloino, G. Zheng, J. L. Sonnenberg, M. Hada, 
 M. Ehara, K. Toyota, R. Fukuda, J. Hasegawa, M. Ishida, T. Nakajima, 
 Y. Honda, O. Kitao, H. Nakai, T. Vreven, J. A. Montgomery, Jr., 
 J. E. Peralta, F. Ogliaro, M. Bearpark, J. J. Heyd, E. Brothers, 
 K. N. Kudin, V. N. Staroverov, R. Kobayashi, J. Normand, 
 K. Raghavachari, A. Rendell, J. C. Burant, S. S. Iyengar, J. Tomasi, 
 M. Cossi, N. Rega, J. M. Millam, M. Klene, J. E. Knox, J. B. Cross, 
 V. Bakken, C. Adamo, J. Jaramillo, R. Gomperts, R. E. Stratmann, 
 O. Yazyev, A. J. Austin, R. Cammi, C. Pomelli, J. W. Ochterski, 
 R. L. Martin, K. Morokuma, V. G. Zakrzewski, G. A. Voth, 
 P. Salvador, J. J. Dannenberg, S. Dapprich, A. D. Daniels, 
 O. Farkas, J. B. Foresman, J. V. Ortiz, J. Cioslowski, 
 and D. J. Fox, Gaussian, Inc., Wallingford CT, 2009.
 
 ******************************************
 Gaussian 09:  EM64L-G09RevA.02 11-Jun-2009
                28-Mar-2015 
 ******************************************
 %Mem=8Gb
 %nproc=24
 Will use up to   24 processors via shared memory.
 Default route:  MaxDisk=100GB
 ------------------
 #p sp b3lyp/6-31g*
 ------------------
 1/38=1/1;
 2/12=2,17=6,18=5,40=1/2;
 3/5=1,6=6,7=1,11=2,16=1,25=1,30=1,74=-5/1,2,3;
 4//1;
 5/5=2,38=5/2;
 6/7=2,8=2,9=2,10=2,28=1/1;
 99/5=1,9=1/99;
 Leave Link    1 at Sat Mar 28 17:12:31 2015, MaxMem= 1073741824 cpu:       2.0
 (Enter /opt/g09/l101.exe)
 ----------------------------------
 B3lyp auto opt job - neutral state
 ----------------------------------
 Symbolic Z-matrix:
 Charge =  0 Multiplicity = 1
 C                    -0.09439   0.07729   0.00928 
 C                    -0.96536   0.78644   1.05147 
 C                    -0.55195   0.44034   2.35632 
 C                     0.60227  -0.45589   2.2662 
 C                     0.87806  -0.70202   0.90874 
 C                    -0.87486  -0.8223   -0.95453 
 C                    -0.54994  -0.51987  -2.29078 
 C                     0.43916   0.56175  -2.30074 
 C                     0.67354   0.96913  -0.97146 
 C                    -1.78797  -1.8172   -0.64387 
 C                    -2.39254  -2.54343  -1.68679 
 C                    -2.06647  -2.24128  -3.02234 
 C                    -1.15595  -1.233    -3.32769 
 C                     1.40632  -1.04349   3.24656 
 C                     2.46552  -1.86447   2.86537 
 C                     2.74664  -2.10132   1.50558 
 C                     1.93428  -1.50933   0.52038 
 C                    -2.06353   1.6042    0.84229 
 C                    -2.7763    2.09341   1.95335 
 C                    -2.35736   1.75792   3.25089 
 C                    -1.2531    0.93228   3.45742 
 C                     1.15393   1.14932  -3.3473 
 C                     2.11043   2.12241  -3.05428 
 C                     2.33811   2.53035  -1.73231 
 C                     1.59584   1.96332  -0.68351 
 N                    -3.3451   -3.55976  -1.40774 
 N                     3.82578  -2.93608   1.11864 
 N                    -3.93601   2.89407   1.75991 
 N                     3.37597   3.4836   -1.44986 
 C                     4.70932   2.99523  -1.38003 
 C                    -3.88295   4.04751   0.93449 
 C                     2.99235   4.69277  -0.80285 
 C                    -5.06572   2.6839    2.59832 
 C                    -3.17166  -4.4525   -0.32202 
 C                    -4.55089  -3.58734  -2.16521 
 C                     5.06376  -2.90597   1.80955 
 C                     3.60943  -3.89448   0.08733 
 C                     5.78976  -4.08369   2.02276 
 C                     7.01929  -4.02444   2.68303 
 C                     7.53148  -2.82065   3.15055 
 C                     6.80087  -1.64047   2.93954 
 C                     5.57858  -1.67793   2.26624 
 C                    -4.28319  -4.90168   0.41556 
 C                    -4.096    -5.78876   1.46906 
 C                    -2.82381  -6.24039   1.83141 
 C                    -1.72211  -5.78817   1.09529 
 C                    -1.89446  -4.90841   0.02229 
 C                    -4.95055  -4.7671   -2.84096 
 C                    -6.14109  -4.77422  -3.57553 
 C                    -6.91828  -3.61634  -3.671 
 C                    -6.51999  -2.44604  -3.02983 
 C                    -5.34598  -2.44289  -2.27513 
 C                     4.46323  -3.94374  -1.04232 
 C                     4.23752  -4.90099  -2.03726 
 C                     3.15379  -5.77884  -1.94077 
 C                     2.29061  -5.71451  -0.84979 
 C                     2.53129  -4.7813    0.15964 
 C                    -2.71294   4.81054   0.83325 
 C                    -2.70066   5.9503    0.02527 
 C                    -3.83343   6.34645  -0.67669 
 C                    -5.00488   5.58016  -0.57675 
 C                    -5.03137   4.43247   0.2168 
 C                    -5.68225   1.40797   2.66036 
 C                    -6.78447   1.21108   3.49835 
 C                    -7.29953   2.27018   4.25145 
 C                    -6.71234   3.53088   4.18174 
 C                    -5.59623   3.7253    3.3667 
 C                     1.88939   5.39589  -1.32054 
 C                     1.47206   6.58281  -0.71764 
 C                     2.14478   7.08002   0.40761 
 C                     3.23691   6.37862   0.90604 
 C                     3.66774   5.18787   0.31709 
 C                     4.97664   1.67003  -0.99624 
 C                     6.2798    1.17642  -0.9395 
 C                     7.35727   2.00748  -1.24879 
 C                     7.11102   3.32336  -1.64128 
 C                     5.80866   3.81667  -1.7284 
 H                     1.78774   2.27593   0.33908 
 H                    -2.40135   1.8496   -0.15985 
 H                    -2.91095   2.14724   4.09958 
 H                    -0.94787   0.68115   4.47015 
 H                     1.209    -0.87618   4.30256 
 H                     3.08838  -2.33205   3.62086 
 H                     0.98856   0.84198  -4.37671 
 H                     2.70134   2.56927  -3.84846 
 H                    -0.91691  -1.01928  -4.36641 
 H                    -2.53495  -2.81076  -3.81849 
 H                     2.14967  -1.68444  -0.52917 
 H                    -2.04014  -2.03823   0.38829 
 H                    -5.27817  -4.55533   0.15757 
 H                    -4.95851  -6.13106   2.03547 
 H                     7.57901  -4.94193   2.84682 
 H                     5.39415  -5.03235   1.6766 
 O                    -0.42673  -6.16793   1.33556 
 H                     4.52067   4.65119   0.71712 
 H                     3.76341   6.76103   1.7766 
 O                     0.41889   7.33677  -1.16634 
 H                    -7.25855   0.23774   3.55257 
 O                    -5.14043   0.44065   1.86882 
 H                    -7.10498   4.35686   4.76762 
 H                    -5.11841   4.69876   3.31229 
 O                    -6.07032   6.03165  -1.30638 
 H                    -3.84199   7.23735  -1.29629 
 H                    -1.7944    6.54669  -0.03652 
 H                    -1.82841   4.5242    1.39097 
 H                     4.14861   1.01969  -0.73647 
 H                     6.44055   0.14502  -0.63613 
 H                     8.37705   1.63675  -1.19532 
 H                     7.92206   3.99765  -1.90064 
 O                     5.64506   5.13286  -2.10073 
 H                     4.88892  -4.95254  -2.90226 
 O                     5.46599  -3.02094  -1.07977 
 H                     2.98902  -6.50619  -2.73124 
 H                     1.43996  -6.38319  -0.76398 
 H                     1.86473  -4.72725   1.01466 
 H                    -5.02315  -1.54126  -1.76269 
 H                    -7.12001  -1.54384  -3.10308 
 H                    -7.83419  -3.6386   -4.25516 
 H                    -6.45763  -5.67299  -4.09244 
 O                    -4.11373  -5.83407  -2.72448 
 H                     8.48034  -2.76417   3.67373 
 H                    -2.70785  -6.92356   2.66411 
 H                    -8.16289   2.09917   4.88863 
 H                     1.80454   8.00659   0.85816 
 C                     5.12201   5.33753  -3.41237 
 C                    -5.64788  -0.88068   1.96895 
 C                    -4.47801  -7.05412  -3.34863 
 C                     6.37537  -3.05598  -2.16738 
 H                     5.77134   4.87611  -4.1689 
 H                     5.09858   6.41903  -3.56428 
 H                     4.10685   4.93671  -3.50959 
 H                    -5.03987  -1.48741   1.29577 
 H                    -6.69949  -0.93526   1.65645 
 H                    -5.55482  -1.27061   2.99078 
 H                    -3.67812  -7.75774  -3.11211 
 H                    -4.55417  -6.94362  -4.43861 
 H                    -5.42853  -7.43994  -2.95747 
 H                     7.08397  -2.2455   -1.98893 
 H                     5.86644  -2.88638  -3.12552 
 H                     6.91685  -4.01007  -2.20919 
 H                     5.01946  -0.77144   2.07366 
 O                     7.37675  -0.49698   3.41673 
 C                     6.69375   0.73309   3.22528 
 H                     5.70747   0.72647   3.708 
 H                     6.57183   0.96784   2.15992 
 H                     7.31854   1.49651   3.69315 
 C                    -0.17837  -7.07456   2.39867 
 H                     0.90044  -7.23995   2.40394 
 H                    -0.69249  -8.03188   2.24101 
 H                    -0.48589  -6.65569   3.36573 
 H                    -1.02076  -4.5951   -0.53763 
 H                     1.37777   4.99896  -2.18824 
 C                    -0.17493   6.98419  -2.40774 
 H                     0.57063   6.96536  -3.2135 
 H                    -0.9145    7.75985  -2.61609 
 H                    -0.68092   6.01221  -2.35584 
 C                    -7.28714   5.30815  -1.23609 
 H                    -5.92263   3.82287   0.29531 
 H                    -7.99259   5.8455   -1.87316 
 H                    -7.67898   5.27189  -0.21083 
 H                    -7.17077   4.2821   -1.61052 
 
 NAtoms=    161 NQM=    161 NQMF=      0 NMic=      0 NMicF=      0 NTot=    161.
                    Isotopes and Nuclear Properties:
 (Nuclear quadrupole moments (NQMom) in fm**2, nuclear magnetic moments (NMagM)
  in nuclear magnetons)

  Atom         1           2           3           4           5           6           7           8           9          10
 IAtWgt=          12          12          12          12          12          12          12          12          12          12
 AtmWgt=  12.0000000  12.0000000  12.0000000  12.0000000  12.0000000  12.0000000  12.0000000  12.0000000  12.0000000  12.0000000
 NucSpn=           0           0           0           0           0           0           0           0           0           0
 AtZEff=   0.0000000   0.0000000   0.0000000   0.0000000   0.0000000   0.0000000   0.0000000   0.0000000   0.0000000   0.0000000
 NQMom=    0.0000000   0.0000000   0.0000000   0.0000000   0.0000000   0.0000000   0.0000000   0.0000000   0.0000000   0.0000000
 NMagM=    0.0000000   0.0000000   0.0000000   0.0000000   0.0000000   0.0000000   0.0000000   0.0000000   0.0000000   0.0000000

  Atom        11          12          13          14          15          16          17          18          19          20
 IAtWgt=          12          12          12          12          12          12          12          12          12          12
 AtmWgt=  12.0000000  12.0000000  12.0000000  12.0000000  12.0000000  12.0000000  12.0000000  12.0000000  12.0000000  12.0000000
 NucSpn=           0           0           0           0           0           0           0           0           0           0
 AtZEff=   0.0000000   0.0000000   0.0000000   0.0000000   0.0000000   0.0000000   0.0000000   0.0000000   0.0000000   0.0000000
 NQMom=    0.0000000   0.0000000   0.0000000   0.0000000   0.0000000   0.0000000   0.0000000   0.0000000   0.0000000   0.0000000
 NMagM=    0.0000000   0.0000000   0.0000000   0.0000000   0.0000000   0.0000000   0.0000000   0.0000000   0.0000000   0.0000000

  Atom        21          22          23          24          25          26          27          28          29          30
 IAtWgt=          12          12          12          12          12          14          14          14          14          12
 AtmWgt=  12.0000000  12.0000000  12.0000000  12.0000000  12.0000000  14.0030740  14.0030740  14.0030740  14.0030740  12.0000000
 NucSpn=           0           0           0           0           0           2           2           2           2           0
 AtZEff=   0.0000000   0.0000000   0.0000000   0.0000000   0.0000000   0.0000000   0.0000000   0.0000000   0.0000000   0.0000000
 NQMom=    0.0000000   0.0000000   0.0000000   0.0000000   0.0000000   2.0440000   2.0440000   2.0440000   2.0440000   0.0000000
 NMagM=    0.0000000   0.0000000   0.0000000   0.0000000   0.0000000   0.4037610   0.4037610   0.4037610   0.4037610   0.0000000

  Atom        31          32          33          34          35          36          37          38          39          40
 IAtWgt=          12          12          12          12          12          12          12          12          12          12
 AtmWgt=  12.0000000  12.0000000  12.0000000  12.0000000  12.0000000  12.0000000  12.0000000  12.0000000  12.0000000  12.0000000
 NucSpn=           0           0           0           0           0           0           0           0           0           0
 AtZEff=   0.0000000   0.0000000   0.0000000   0.0000000   0.0000000   0.0000000   0.0000000   0.0000000   0.0000000   0.0000000
 NQMom=    0.0000000   0.0000000   0.0000000   0.0000000   0.0000000   0.0000000   0.0000000   0.0000000   0.0000000   0.0000000
 NMagM=    0.0000000   0.0000000   0.0000000   0.0000000   0.0000000   0.0000000   0.0000000   0.0000000   0.0000000   0.0000000

  Atom        41          42          43          44          45          46          47          48          49          50
 IAtWgt=          12          12          12          12          12          12          12          12          12          12
 AtmWgt=  12.0000000  12.0000000  12.0000000  12.0000000  12.0000000  12.0000000  12.0000000  12.0000000  12.0000000  12.0000000
 NucSpn=           0           0           0           0           0           0           0           0           0           0
 AtZEff=   0.0000000   0.0000000   0.0000000   0.0000000   0.0000000   0.0000000   0.0000000   0.0000000   0.0000000   0.0000000
 NQMom=    0.0000000   0.0000000   0.0000000   0.0000000   0.0000000   0.0000000   0.0000000   0.0000000   0.0000000   0.0000000
 NMagM=    0.0000000   0.0000000   0.0000000   0.0000000   0.0000000   0.0000000   0.0000000   0.0000000   0.0000000   0.0000000

  Atom        51          52          53          54          55          56          57          58          59          60
 IAtWgt=          12          12          12          12          12          12          12          12          12          12
 AtmWgt=  12.0000000  12.0000000  12.0000000  12.0000000  12.0000000  12.0000000  12.0000000  12.0000000  12.0000000  12.0000000
 NucSpn=           0           0           0           0           0           0           0           0           0           0
 AtZEff=   0.0000000   0.0000000   0.0000000   0.0000000   0.0000000   0.0000000   0.0000000   0.0000000   0.0000000   0.0000000
 NQMom=    0.0000000   0.0000000   0.0000000   0.0000000   0.0000000   0.0000000   0.0000000   0.0000000   0.0000000   0.0000000
 NMagM=    0.0000000   0.0000000   0.0000000   0.0000000   0.0000000   0.0000000   0.0000000   0.0000000   0.0000000   0.0000000

  Atom        61          62          63          64          65          66          67          68          69          70
 IAtWgt=          12          12          12          12          12          12          12          12          12          12
 AtmWgt=  12.0000000  12.0000000  12.0000000  12.0000000  12.0000000  12.0000000  12.0000000  12.0000000  12.0000000  12.0000000
 NucSpn=           0           0           0           0           0           0           0           0           0           0
 AtZEff=   0.0000000   0.0000000   0.0000000   0.0000000   0.0000000   0.0000000   0.0000000   0.0000000   0.0000000   0.0000000
 NQMom=    0.0000000   0.0000000   0.0000000   0.0000000   0.0000000   0.0000000   0.0000000   0.0000000   0.0000000   0.0000000
 NMagM=    0.0000000   0.0000000   0.0000000   0.0000000   0.0000000   0.0000000   0.0000000   0.0000000   0.0000000   0.0000000

  Atom        71          72          73          74          75          76          77          78          79          80
 IAtWgt=          12          12          12          12          12          12          12           1           1           1
 AtmWgt=  12.0000000  12.0000000  12.0000000  12.0000000  12.0000000  12.0000000  12.0000000   1.0078250   1.0078250   1.0078250
 NucSpn=           0           0           0           0           0           0           0           1           1           1
 AtZEff=   0.0000000   0.0000000   0.0000000   0.0000000   0.0000000   0.0000000   0.0000000   0.0000000   0.0000000   0.0000000
 NQMom=    0.0000000   0.0000000   0.0000000   0.0000000   0.0000000   0.0000000   0.0000000   0.0000000   0.0000000   0.0000000
 NMagM=    0.0000000   0.0000000   0.0000000   0.0000000   0.0000000   0.0000000   0.0000000   2.7928460   2.7928460   2.7928460

  Atom        81          82          83          84          85          86          87          88          89          90
 IAtWgt=           1           1           1           1           1           1           1           1           1           1
 AtmWgt=   1.0078250   1.0078250   1.0078250   1.0078250   1.0078250   1.0078250   1.0078250   1.0078250   1.0078250   1.0078250
 NucSpn=           1           1           1           1           1           1           1           1           1           1
 AtZEff=   0.0000000   0.0000000   0.0000000   0.0000000   0.0000000   0.0000000   0.0000000   0.0000000   0.0000000   0.0000000
 NQMom=    0.0000000   0.0000000   0.0000000   0.0000000   0.0000000   0.0000000   0.0000000   0.0000000   0.0000000   0.0000000
 NMagM=    2.7928460   2.7928460   2.7928460   2.7928460   2.7928460   2.7928460   2.7928460   2.7928460   2.7928460   2.7928460

  Atom        91          92          93          94          95          96          97          98          99         100
 IAtWgt=           1           1           1          16           1           1          16           1          16           1
 AtmWgt=   1.0078250   1.0078250   1.0078250  15.9949146   1.0078250   1.0078250  15.9949146   1.0078250  15.9949146   1.0078250
 NucSpn=           1           1           1           0           1           1           0           1           0           1
 AtZEff=   0.0000000   0.0000000   0.0000000   0.0000000   0.0000000   0.0000000   0.0000000   0.0000000   0.0000000   0.0000000
 NQMom=    0.0000000   0.0000000   0.0000000   0.0000000   0.0000000   0.0000000   0.0000000   0.0000000   0.0000000   0.0000000
 NMagM=    2.7928460   2.7928460   2.7928460   0.0000000   2.7928460   2.7928460   0.0000000   2.7928460   0.0000000   2.7928460

  Atom       101         102         103         104         105         106         107         108         109         110
 IAtWgt=           1          16           1           1           1           1           1           1           1          16
 AtmWgt=   1.0078250  15.9949146   1.0078250   1.0078250   1.0078250   1.0078250   1.0078250   1.0078250   1.0078250  15.9949146
 NucSpn=           1           0           1           1           1           1           1           1           1           0
 AtZEff=   0.0000000   0.0000000   0.0000000   0.0000000   0.0000000   0.0000000   0.0000000   0.0000000   0.0000000   0.0000000
 NQMom=    0.0000000   0.0000000   0.0000000   0.0000000   0.0000000   0.0000000   0.0000000   0.0000000   0.0000000   0.0000000
 NMagM=    2.7928460   0.0000000   2.7928460   2.7928460   2.7928460   2.7928460   2.7928460   2.7928460   2.7928460   0.0000000

  Atom       111         112         113         114         115         116         117         118         119         120
 IAtWgt=           1          16           1           1           1           1           1           1           1          16
 AtmWgt=   1.0078250  15.9949146   1.0078250   1.0078250   1.0078250   1.0078250   1.0078250   1.0078250   1.0078250  15.9949146
 NucSpn=           1           0           1           1           1           1           1           1           1           0
 AtZEff=   0.0000000   0.0000000   0.0000000   0.0000000   0.0000000   0.0000000   0.0000000   0.0000000   0.0000000   0.0000000
 NQMom=    0.0000000   0.0000000   0.0000000   0.0000000   0.0000000   0.0000000   0.0000000   0.0000000   0.0000000   0.0000000
 NMagM=    2.7928460   0.0000000   2.7928460   2.7928460   2.7928460   2.7928460   2.7928460   2.7928460   2.7928460   0.0000000

  Atom       121         122         123         124         125         126         127         128         129         130
 IAtWgt=           1           1           1           1          12          12          12          12           1           1
 AtmWgt=   1.0078250   1.0078250   1.0078250   1.0078250  12.0000000  12.0000000  12.0000000  12.0000000   1.0078250   1.0078250
 NucSpn=           1           1           1           1           0           0           0           0           1           1
 AtZEff=   0.0000000   0.0000000   0.0000000   0.0000000   0.0000000   0.0000000   0.0000000   0.0000000   0.0000000   0.0000000
 NQMom=    0.0000000   0.0000000   0.0000000   0.0000000   0.0000000   0.0000000   0.0000000   0.0000000   0.0000000   0.0000000
 NMagM=    2.7928460   2.7928460   2.7928460   2.7928460   0.0000000   0.0000000   0.0000000   0.0000000   2.7928460   2.7928460

  Atom       131         132         133         134         135         136         137         138         139         140
 IAtWgt=           1           1           1           1           1           1           1           1           1           1
 AtmWgt=   1.0078250   1.0078250   1.0078250   1.0078250   1.0078250   1.0078250   1.0078250   1.0078250   1.0078250   1.0078250
 NucSpn=           1           1           1           1           1           1           1           1           1           1
 AtZEff=   0.0000000   0.0000000   0.0000000   0.0000000   0.0000000   0.0000000   0.0000000   0.0000000   0.0000000   0.0000000
 NQMom=    0.0000000   0.0000000   0.0000000   0.0000000   0.0000000   0.0000000   0.0000000   0.0000000   0.0000000   0.0000000
 NMagM=    2.7928460   2.7928460   2.7928460   2.7928460   2.7928460   2.7928460   2.7928460   2.7928460   2.7928460   2.7928460

  Atom       141         142         143         144         145         146         147         148         149         150
 IAtWgt=           1          16          12           1           1           1          12           1           1           1
 AtmWgt=   1.0078250  15.9949146  12.0000000   1.0078250   1.0078250   1.0078250  12.0000000   1.0078250   1.0078250   1.0078250
 NucSpn=           1           0           0           1           1           1           0           1           1           1
 AtZEff=   0.0000000   0.0000000   0.0000000   0.0000000   0.0000000   0.0000000   0.0000000   0.0000000   0.0000000   0.0000000
 NQMom=    0.0000000   0.0000000   0.0000000   0.0000000   0.0000000   0.0000000   0.0000000   0.0000000   0.0000000   0.0000000
 NMagM=    2.7928460   0.0000000   0.0000000   2.7928460   2.7928460   2.7928460   0.0000000   2.7928460   2.7928460   2.7928460

  Atom       151         152         153         154         155         156         157         158         159         160
 IAtWgt=           1           1          12           1           1           1          12           1           1           1
 AtmWgt=   1.0078250   1.0078250  12.0000000   1.0078250   1.0078250   1.0078250  12.0000000   1.0078250   1.0078250   1.0078250
 NucSpn=           1           1           0           1           1           1           0           1           1           1
 AtZEff=   0.0000000   0.0000000   0.0000000   0.0000000   0.0000000   0.0000000   0.0000000   0.0000000   0.0000000   0.0000000
 NQMom=    0.0000000   0.0000000   0.0000000   0.0000000   0.0000000   0.0000000   0.0000000   0.0000000   0.0000000   0.0000000
 NMagM=    2.7928460   2.7928460   0.0000000   2.7928460   2.7928460   2.7928460   0.0000000   2.7928460   2.7928460   2.7928460

  Atom       161
 IAtWgt=           1
 AtmWgt=   1.0078250
 NucSpn=           1
 AtZEff=   0.0000000
 NQMom=    0.0000000
 NMagM=    2.7928460
 Leave Link  101 at Sat Mar 28 17:12:32 2015, MaxMem= 1073741824 cpu:       3.9
 (Enter /opt/g09/l202.exe)
 Stoichiometry    C81H68N4O8
 Framework group  C1[X(C81H68N4O8)]
 Deg. of freedom   477
 Full point group                 C1      NOp   1
 Largest Abelian subgroup         C1      NOp   1
 Largest concise Abelian subgroup C1      NOp   1
                         Standard orientation:                         
 ---------------------------------------------------------------------
 Center     Atomic      Atomic             Coordinates (Angstroms)
 Number     Number       Type             X           Y           Z
 ---------------------------------------------------------------------
      1          6           0       -0.094385    0.077291    0.009279
      2          6           0       -0.965358    0.786443    1.051469
      3          6           0       -0.551952    0.440338    2.356318
      4          6           0        0.602265   -0.455890    2.266202
      5          6           0        0.878063   -0.702021    0.908739
      6          6           0       -0.874855   -0.822297   -0.954533
      7          6           0       -0.549938   -0.519870   -2.290784
      8          6           0        0.439161    0.561745   -2.300743
      9          6           0        0.673540    0.969126   -0.971461
     10          6           0       -1.787968   -1.817198   -0.643873
     11          6           0       -2.392537   -2.543434   -1.686786
     12          6           0       -2.066472   -2.241277   -3.022344
     13          6           0       -1.155945   -1.232995   -3.327688
     14          6           0        1.406323   -1.043489    3.246563
     15          6           0        2.465520   -1.864466    2.865374
     16          6           0        2.746643   -2.101315    1.505578
     17          6           0        1.934279   -1.509331    0.520375
     18          6           0       -2.063526    1.604196    0.842285
     19          6           0       -2.776302    2.093407    1.953352
     20          6           0       -2.357363    1.757920    3.250887
     21          6           0       -1.253101    0.932276    3.457420
     22          6           0        1.153930    1.149322   -3.347300
     23          6           0        2.110426    2.122410   -3.054279
     24          6           0        2.338108    2.530354   -1.732311
     25          6           0        1.595839    1.963322   -0.683506
     26          7           0       -3.345104   -3.559764   -1.407742
     27          7           0        3.825779   -2.936084    1.118635
     28          7           0       -3.936011    2.894069    1.759912
     29          7           0        3.375965    3.483602   -1.449860
     30          6           0        4.709323    2.995231   -1.380028
     31          6           0       -3.882951    4.047512    0.934487
     32          6           0        2.992352    4.692769   -0.802850
     33          6           0       -5.065721    2.683900    2.598320
     34          6           0       -3.171663   -4.452499   -0.322016
     35          6           0       -4.550886   -3.587335   -2.165212
     36          6           0        5.063756   -2.905968    1.809546
     37          6           0        3.609428   -3.894477    0.087334
     38          6           0        5.789758   -4.083692    2.022755
     39          6           0        7.019288   -4.024442    2.683027
     40          6           0        7.531482   -2.820650    3.150545
     41          6           0        6.800871   -1.640469    2.939544
     42          6           0        5.578580   -1.677930    2.266240
     43          6           0       -4.283192   -4.901680    0.415562
     44          6           0       -4.095997   -5.788757    1.469058
     45          6           0       -2.823811   -6.240387    1.831405
     46          6           0       -1.722112   -5.788168    1.095286
     47          6           0       -1.894460   -4.908406    0.022291
     48          6           0       -4.950550   -4.767097   -2.840962
     49          6           0       -6.141087   -4.774221   -3.575533
     50          6           0       -6.918275   -3.616341   -3.670999
     51          6           0       -6.519992   -2.446036   -3.029833
     52          6           0       -5.345985   -2.442888   -2.275129
     53          6           0        4.463233   -3.943743   -1.042318
     54          6           0        4.237518   -4.900990   -2.037261
     55          6           0        3.153787   -5.778842   -1.940771
     56          6           0        2.290614   -5.714508   -0.849786
     57          6           0        2.531292   -4.781298    0.159638
     58          6           0       -2.712937    4.810540    0.833245
     59          6           0       -2.700664    5.950304    0.025273
     60          6           0       -3.833433    6.346453   -0.676693
     61          6           0       -5.004875    5.580159   -0.576753
     62          6           0       -5.031365    4.432472    0.216797
     63          6           0       -5.682253    1.407972    2.660356
     64          6           0       -6.784469    1.211076    3.498353
     65          6           0       -7.299529    2.270179    4.251445
     66          6           0       -6.712338    3.530878    4.181739
     67          6           0       -5.596230    3.725303    3.366702
     68          6           0        1.889391    5.395887   -1.320537
     69          6           0        1.472057    6.582810   -0.717640
     70          6           0        2.144776    7.080023    0.407609
     71          6           0        3.236906    6.378619    0.906040
     72          6           0        3.667735    5.187866    0.317091
     73          6           0        4.976641    1.670029   -0.996239
     74          6           0        6.279800    1.176420   -0.939498
     75          6           0        7.357274    2.007484   -1.248787
     76          6           0        7.111025    3.323362   -1.641279
     77          6           0        5.808660    3.816667   -1.728398
     78          1           0        1.787741    2.275927    0.339080
     79          1           0       -2.401353    1.849596   -0.159849
     80          1           0       -2.910947    2.147236    4.099579
     81          1           0       -0.947870    0.681148    4.470147
     82          1           0        1.208998   -0.876177    4.302564
     83          1           0        3.088375   -2.332052    3.620858
     84          1           0        0.988559    0.841976   -4.376710
     85          1           0        2.701344    2.569270   -3.848456
     86          1           0       -0.916914   -1.019285   -4.366410
     87          1           0       -2.534953   -2.810757   -3.818488
     88          1           0        2.149668   -1.684441   -0.529172
     89          1           0       -2.040141   -2.038226    0.388285
     90          1           0       -5.278171   -4.555334    0.157570
     91          1           0       -4.958511   -6.131061    2.035475
     92          1           0        7.579005   -4.941932    2.846824
     93          1           0        5.394146   -5.032354    1.676595
     94          8           0       -0.426725   -6.167933    1.335563
     95          1           0        4.520674    4.651186    0.717122
     96          1           0        3.763413    6.761029    1.776602
     97          8           0        0.418885    7.336773   -1.166336
     98          1           0       -7.258547    0.237740    3.552571
     99          8           0       -5.140433    0.440646    1.868817
    100          1           0       -7.104983    4.356859    4.767621
    101          1           0       -5.118414    4.698757    3.312294
    102          8           0       -6.070321    6.031648   -1.306384
    103          1           0       -3.841992    7.237353   -1.296289
    104          1           0       -1.794400    6.546691   -0.036519
    105          1           0       -1.828411    4.524198    1.390971
    106          1           0        4.148612    1.019692   -0.736468
    107          1           0        6.440554    0.145021   -0.636131
    108          1           0        8.377050    1.636754   -1.195316
    109          1           0        7.922059    3.997648   -1.900641
    110          8           0        5.645061    5.132857   -2.100726
    111          1           0        4.888916   -4.952543   -2.902263
    112          8           0        5.465986   -3.020937   -1.079771
    113          1           0        2.989015   -6.506187   -2.731244
    114          1           0        1.439958   -6.383187   -0.763980
    115          1           0        1.864726   -4.727247    1.014663
    116          1           0       -5.023146   -1.541258   -1.762686
    117          1           0       -7.120013   -1.543837   -3.103076
    118          1           0       -7.834187   -3.638599   -4.255164
    119          1           0       -6.457625   -5.672989   -4.092436
    120          8           0       -4.113733   -5.834071   -2.724479
    121          1           0        8.480338   -2.764174    3.673729
    122          1           0       -2.707853   -6.923563    2.664106
    123          1           0       -8.162892    2.099169    4.888627
    124          1           0        1.804536    8.006591    0.858164
    125          6           0        5.122009    5.337529   -3.412370
    126          6           0       -5.647879   -0.880684    1.968952
    127          6           0       -4.478009   -7.054119   -3.348628
    128          6           0        6.375366   -3.055977   -2.167384
    129          1           0        5.771336    4.876113   -4.168904
    130          1           0        5.098584    6.419025   -3.564275
    131          1           0        4.106854    4.936714   -3.509585
    132          1           0       -5.039867   -1.487406    1.295774
    133          1           0       -6.699487   -0.935257    1.656453
    134          1           0       -5.554817   -1.270613    2.990784
    135          1           0       -3.678120   -7.757741   -3.112106
    136          1           0       -4.554172   -6.943624   -4.438612
    137          1           0       -5.428533   -7.439944   -2.957473
    138          1           0        7.083970   -2.245498   -1.988933
    139          1           0        5.866438   -2.886382   -3.125521
    140          1           0        6.916847   -4.010071   -2.209191
    141          1           0        5.019462   -0.771436    2.073660
    142          8           0        7.376753   -0.496979    3.416732
    143          6           0        6.693751    0.733090    3.225277
    144          1           0        5.707469    0.726471    3.708002
    145          1           0        6.571834    0.967835    2.159922
    146          1           0        7.318541    1.496505    3.693148
    147          6           0       -0.178370   -7.074555    2.398674
    148          1           0        0.900436   -7.239945    2.403939
    149          1           0       -0.692485   -8.031882    2.241012
    150          1           0       -0.485889   -6.655692    3.365733
    151          1           0       -1.020765   -4.595096   -0.537629
    152          1           0        1.377772    4.998964   -2.188238
    153          6           0       -0.174933    6.984194   -2.407737
    154          1           0        0.570633    6.965362   -3.213496
    155          1           0       -0.914495    7.759855   -2.616087
    156          1           0       -0.680918    6.012209   -2.355845
    157          6           0       -7.287139    5.308152   -1.236087
    158          1           0       -5.922626    3.822869    0.295310
    159          1           0       -7.992590    5.845502   -1.873164
    160          1           0       -7.678980    5.271885   -0.210826
    161          1           0       -7.170774    4.282097   -1.610523
 ---------------------------------------------------------------------
 Rotational constants (GHZ):      0.0200607      0.0175617      0.0118556
 Leave Link  202 at Sat Mar 28 17:12:32 2015, MaxMem= 1073741824 cpu:       2.3
 (Enter /opt/g09/l301.exe)
 Standard basis: 6-31G(d) (6D, 7F)
 Ernie: Thresh=  0.10000D-02 Tol=  0.10000D-05 Strict=F.
 There are  1531 symmetry adapted basis functions of A   symmetry.
 Integral buffers will be    131072 words long.
 Raffenetti 2 integral format.
 Two-electron integral symmetry is turned on.
  1531 basis functions,  2876 primitive gaussians,  1531 cartesian basis functions
   323 alpha electrons      323 beta electrons
       nuclear repulsion energy     17151.4688839817 Hartrees.
 IExCor=  402 DFT=T Ex+Corr=B3LYP ExCW=0 ScaHFX=  0.200000
 ScaDFX=  0.800000  0.720000  1.000000  0.810000 ScalE2=  1.000000  1.000000
 IRadAn=      0 IRanWt=     -1 IRanGd=            0 ICorTp=0
 NAtoms=  161 NActive=  161 NUniq=  161 SFac= 7.50D-01 NAtFMM=   80 NAOKFM=T Big=T
 Leave Link  301 at Sat Mar 28 17:12:32 2015, MaxMem= 1073741824 cpu:       2.4
 (Enter /opt/g09/l302.exe)
 NPDir=0 NMtPBC=     1 NCelOv=     1 NCel=       1 NClECP=     1 NCelD=      1
         NCelK=      1 NCelE2=     1 NClLst=     1 CellRange=     0.0.
 One-electron integrals computed using PRISM.
 NBasis=  1531 RedAO= T  NBF=  1531
 NBsUse=  1531 1.00D-06 NBFU=  1531
 Precomputing XC quadrature grid using
 IXCGrd= 2 IRadAn=           0 IRanWt=          -1 IRanGd=           0 AccXCQ= 1.00D-10.
 NRdTot=   10473 NPtTot=     1341662 NUsed=     1417079 NTot=     1417111
 NSgBfM=  1135  1176  1190  1205  1219 NAtAll=   161   161.
 Leave Link  302 at Sat Mar 28 17:13:17 2015, MaxMem= 1073741824 cpu:     543.4
 (Enter /opt/g09/l303.exe)
 DipDrv:  MaxL=1.
 Leave Link  303 at Sat Mar 28 17:13:19 2015, MaxMem= 1073741824 cpu:      17.7
 (Enter /opt/g09/l401.exe)
 Harris functional with IExCor=  402 diagonalized for initial guess.
 ExpMin= 1.61D-01 ExpMax= 5.48D+03 ExpMxC= 8.25D+02 IAcc=1 IRadAn=         1 AccDes= 0.00D+00
 HarFok:  IExCor=  402 AccDes= 0.00D+00 IRadAn=         1 IDoV= 1
 ScaDFX=  1.000000  1.000000  1.000000  1.000000
 FoFCou: FMM=F IPFlag=           0 FMFlag=      100000 FMFlg1=        2001
         NFxFlg=           0 DoJE=T BraDBF=F KetDBF=T FulRan=T
         Omega=  0.000000  0.000000  1.000000  0.000000  0.000000 ICntrl=     500 IOpCl=  0
         NMat0=    1 NMatS0=    1 NMatT0=    0 NMatD0=    1 NMtDS0=    0 NMtDT0=    0
         I1Cent=           4 NGrid=           0.
 Petite list used in FoFCou.
 Harris En= -3948.59462655086    
 Initial guess orbital symmetries:
       Occupied  (A) (A) (A) (A) (A) (A) (A) (A) (A) (A) (A) (A)
                 (A) (A) (A) (A) (A) (A) (A) (A) (A) (A) (A) (A)
                 (A) (A) (A) (A) (A) (A) (A) (A) (A) (A) (A) (A)
                 (A) (A) (A) (A) (A) (A) (A) (A) (A) (A) (A) (A)
                 (A) (A) (A) (A) (A) (A) (A) (A) (A) (A) (A) (A)
                 (A) (A) (A) (A) (A) (A) (A) (A) (A) (A) (A) (A)
                 (A) (A) (A) (A) (A) (A) (A) (A) (A) (A) (A) (A)
                 (A) (A) (A) (A) (A) (A) (A) (A) (A) (A) (A) (A)
                 (A) (A) (A) (A) (A) (A) (A) (A) (A) (A) (A) (A)
                 (A) (A) (A) (A) (A) (A) (A) (A) (A) (A) (A) (A)
                 (A) (A) (A) (A) (A) (A) (A) (A) (A) (A) (A) (A)
                 (A) (A) (A) (A) (A) (A) (A) (A) (A) (A) (A) (A)
                 (A) (A) (A) (A) (A) (A) (A) (A) (A) (A) (A) (A)
                 (A) (A) (A) (A) (A) (A) (A) (A) (A) (A) (A) (A)
                 (A) (A) (A) (A) (A) (A) (A) (A) (A) (A) (A) (A)
                 (A) (A) (A) (A) (A) (A) (A) (A) (A) (A) (A) (A)
                 (A) (A) (A) (A) (A) (A) (A) (A) (A) (A) (A) (A)
                 (A) (A) (A) (A) (A) (A) (A) (A) (A) (A) (A) (A)
                 (A) (A) (A) (A) (A) (A) (A) (A) (A) (A) (A) (A)
                 (A) (A) (A) (A) (A) (A) (A) (A) (A) (A) (A) (A)
                 (A) (A) (A) (A) (A) (A) (A) (A) (A) (A) (A) (A)
                 (A) (A) (A) (A) (A) (A) (A) (A) (A) (A) (A) (A)
                 (A) (A) (A) (A) (A) (A) (A) (A) (A) (A) (A) (A)
                 (A) (A) (A) (A) (A) (A) (A) (A) (A) (A) (A) (A)
                 (A) (A) (A) (A) (A) (A) (A) (A) (A) (A) (A) (A)
                 (A) (A) (A) (A) (A) (A) (A) (A) (A) (A) (A) (A)
                 (A) (A) (A) (A) (A) (A) (A) (A) (A) (A) (A)
       Virtual   (A) (A) (A) (A) (A) (A) (A) (A) (A) (A) (A) (A)
                 (A) (A) (A) (A) (A) (A) (A) (A) (A) (A) (A) (A)
                 (A) (A) (A) (A) (A) (A) (A) (A) (A) (A) (A) (A)
                 (A) (A) (A) (A) (A) (A) (A) (A) (A) (A) (A) (A)
                 (A) (A) (A) (A) (A) (A) (A) (A) (A) (A) (A) (A)
                 (A) (A) (A) (A) (A) (A) (A) (A) (A) (A) (A) (A)
                 (A) (A) (A) (A) (A) (A) (A) (A) (A) (A) (A) (A)
                 (A) (A) (A) (A) (A) (A) (A) (A) (A) (A) (A) (A)
                 (A) (A) (A) (A) (A) (A) (A) (A) (A) (A) (A) (A)
                 (A) (A) (A) (A) (A) (A) (A) (A) (A) (A) (A) (A)
                 (A) (A) (A) (A) (A) (A) (A) (A) (A) (A) (A) (A)
                 (A) (A) (A) (A) (A) (A) (A) (A) (A) (A) (A) (A)
                 (A) (A) (A) (A) (A) (A) (A) (A) (A) (A) (A) (A)
                 (A) (A) (A) (A) (A) (A) (A) (A) (A) (A) (A) (A)
                 (A) (A) (A) (A) (A) (A) (A) (A) (A) (A) (A) (A)
                 (A) (A) (A) (A) (A) (A) (A) (A) (A) (A) (A) (A)
                 (A) (A) (A) (A) (A) (A) (A) (A) (A) (A) (A) (A)
                 (A) (A) (A) (A) (A) (A) (A) (A) (A) (A) (A) (A)
                 (A) (A) (A) (A) (A) (A) (A) (A) (A) (A) (A) (A)
                 (A) (A) (A) (A) (A) (A) (A) (A) (A) (A) (A) (A)
                 (A) (A) (A) (A) (A) (A) (A) (A) (A) (A) (A) (A)
                 (A) (A) (A) (A) (A) (A) (A) (A) (A) (A) (A) (A)
                 (A) (A) (A) (A) (A) (A) (A) (A) (A) (A) (A) (A)
                 (A) (A) (A) (A) (A) (A) (A) (A) (A) (A) (A) (A)
                 (A) (A) (A) (A) (A) (A) (A) (A) (A) (A) (A) (A)
                 (A) (A) (A) (A) (A) (A) (A) (A) (A) (A) (A) (A)
                 (A) (A) (A) (A) (A) (A) (A) (A) (A) (A) (A) (A)
                 (A) (A) (A) (A) (A) (A) (A) (A) (A) (A) (A) (A)
                 (A) (A) (A) (A) (A) (A) (A) (A) (A) (A) (A) (A)
                 (A) (A) (A) (A) (A) (A) (A) (A) (A) (A) (A) (A)
                 (A) (A) (A) (A) (A) (A) (A) (A) (A) (A) (A) (A)
                 (A) (A) (A) (A) (A) (A) (A) (A) (A) (A) (A) (A)
                 (A) (A) (A) (A) (A) (A) (A) (A) (A) (A) (A) (A)
                 (A) (A) (A) (A) (A) (A) (A) (A) (A) (A) (A) (A)
                 (A) (A) (A) (A) (A) (A) (A) (A) (A) (A) (A) (A)
                 (A) (A) (A) (A) (A) (A) (A) (A) (A) (A) (A) (A)
                 (A) (A) (A) (A) (A) (A) (A) (A) (A) (A) (A) (A)
                 (A) (A) (A) (A) (A) (A) (A) (A) (A) (A) (A) (A)
                 (A) (A) (A) (A) (A) (A) (A) (A) (A) (A) (A) (A)
                 (A) (A) (A) (A) (A) (A) (A) (A) (A) (A) (A) (A)
                 (A) (A) (A) (A) (A) (A) (A) (A) (A) (A) (A) (A)
                 (A) (A) (A) (A) (A) (A) (A) (A) (A) (A) (A) (A)
                 (A) (A) (A) (A) (A) (A) (A) (A) (A) (A) (A) (A)
                 (A) (A) (A) (A) (A) (A) (A) (A) (A) (A) (A) (A)
                 (A) (A) (A) (A) (A) (A) (A) (A) (A) (A) (A) (A)
                 (A) (A) (A) (A) (A) (A) (A) (A) (A) (A) (A) (A)
                 (A) (A) (A) (A) (A) (A) (A) (A) (A) (A) (A) (A)
                 (A) (A) (A) (A) (A) (A) (A) (A) (A) (A) (A) (A)
                 (A) (A) (A) (A) (A) (A) (A) (A) (A) (A) (A) (A)
                 (A) (A) (A) (A) (A) (A) (A) (A) (A) (A) (A) (A)
                 (A) (A) (A) (A) (A) (A) (A) (A) (A) (A) (A) (A)
                 (A) (A) (A) (A) (A) (A) (A) (A) (A) (A) (A) (A)
                 (A) (A) (A) (A) (A) (A) (A) (A) (A) (A) (A) (A)
                 (A) (A) (A) (A) (A) (A) (A) (A) (A) (A) (A) (A)
                 (A) (A) (A) (A) (A) (A) (A) (A) (A) (A) (A) (A)
                 (A) (A) (A) (A) (A) (A) (A) (A) (A) (A) (A) (A)
                 (A) (A) (A) (A) (A) (A) (A) (A) (A) (A) (A) (A)
                 (A) (A) (A) (A) (A) (A) (A) (A) (A) (A) (A) (A)
                 (A) (A) (A) (A) (A) (A) (A) (A) (A) (A) (A) (A)
                 (A) (A) (A) (A) (A) (A) (A) (A) (A) (A) (A) (A)
                 (A) (A) (A) (A) (A) (A) (A) (A) (A) (A) (A) (A)
                 (A) (A) (A) (A) (A) (A) (A) (A) (A) (A) (A) (A)
                 (A) (A) (A) (A) (A) (A) (A) (A) (A) (A) (A) (A)
                 (A) (A) (A) (A) (A) (A) (A) (A) (A) (A) (A) (A)
                 (A) (A) (A) (A) (A) (A) (A) (A) (A) (A) (A) (A)
                 (A) (A) (A) (A) (A) (A) (A) (A) (A) (A) (A) (A)
                 (A) (A) (A) (A) (A) (A) (A) (A) (A) (A) (A) (A)
                 (A) (A) (A) (A) (A) (A) (A) (A) (A) (A) (A) (A)
                 (A) (A) (A) (A) (A) (A) (A) (A) (A) (A) (A) (A)
                 (A) (A) (A) (A) (A) (A) (A) (A) (A) (A) (A) (A)
                 (A) (A) (A) (A) (A) (A) (A) (A) (A) (A) (A) (A)
                 (A) (A) (A) (A) (A) (A) (A) (A) (A) (A) (A) (A)
                 (A) (A) (A) (A) (A) (A) (A) (A) (A) (A) (A) (A)
                 (A) (A) (A) (A) (A) (A) (A) (A) (A) (A) (A) (A)
                 (A) (A) (A) (A) (A) (A) (A) (A) (A) (A) (A) (A)
                 (A) (A) (A) (A) (A) (A) (A) (A) (A) (A) (A) (A)
                 (A) (A) (A) (A) (A) (A) (A) (A) (A) (A) (A) (A)
                 (A) (A) (A) (A) (A) (A) (A) (A) (A) (A) (A) (A)
                 (A) (A) (A) (A) (A) (A) (A) (A) (A) (A) (A) (A)
                 (A) (A) (A) (A) (A) (A) (A) (A) (A) (A) (A) (A)
                 (A) (A) (A) (A) (A) (A) (A) (A) (A) (A) (A) (A)
                 (A) (A) (A) (A) (A) (A) (A) (A) (A) (A) (A) (A)
                 (A) (A) (A) (A) (A) (A) (A) (A) (A) (A) (A) (A)
                 (A) (A) (A) (A) (A) (A) (A) (A) (A) (A) (A) (A)
                 (A) (A) (A) (A) (A) (A) (A) (A) (A) (A) (A) (A)
                 (A) (A) (A) (A) (A) (A) (A) (A) (A) (A) (A) (A)
                 (A) (A) (A) (A) (A) (A) (A) (A) (A) (A) (A) (A)
                 (A) (A) (A) (A) (A) (A) (A) (A) (A) (A) (A) (A)
                 (A) (A) (A) (A) (A) (A) (A) (A) (A) (A) (A) (A)
                 (A) (A) (A) (A) (A) (A) (A) (A) (A) (A) (A) (A)
                 (A) (A) (A) (A) (A) (A) (A) (A) (A) (A) (A) (A)
                 (A) (A) (A) (A) (A) (A) (A) (A) (A) (A) (A) (A)
                 (A) (A) (A) (A) (A) (A) (A) (A) (A) (A) (A) (A)
                 (A) (A) (A) (A) (A) (A) (A) (A) (A) (A) (A) (A)
                 (A) (A) (A) (A) (A) (A) (A) (A) (A) (A) (A) (A)
                 (A) (A) (A) (A) (A) (A) (A) (A) (A) (A) (A) (A)
                 (A) (A) (A) (A) (A) (A) (A) (A) (A) (A) (A) (A)
                 (A) (A) (A) (A) (A) (A) (A) (A) (A) (A) (A) (A)
                 (A) (A) (A) (A) (A) (A) (A) (A) (A) (A) (A) (A)
                 (A) (A) (A) (A) (A) (A) (A) (A) (A) (A) (A) (A)
                 (A) (A) (A) (A) (A) (A) (A) (A)
 The electronic state of the initial guess is 1-A.
 Leave Link  401 at Sat Mar 28 17:14:07 2015, MaxMem= 1073741824 cpu:     584.3
 (Enter /opt/g09/l502.exe)
 Closed shell SCF:
 Requested convergence on RMS density matrix=1.00D-08 within 128 cycles.
 Requested convergence on MAX density matrix=1.00D-06.
 Requested convergence on             energy=1.00D-06.
 No special actions if energy rises.
 Using DIIS extrapolation, IDIIS=  1040.
 Integral symmetry usage will be decided dynamically.
      1415617 words used for storage of precomputed grid.
 IEnd=     8513937 IEndB=     8513937 NGot=  1073741824 MDV=  1067590020
 LenX=  1067590020 LenY=  1065244528
 Fock matrices will be formed incrementally for  20 cycles.
 Integral accuracy reduced to 1.0D-05 until final iterations.

 Cycle   1  Pass 0  IDiag  1:
 FoFCou: FMM=T IPFlag=           0 FMFlag=      100000 FMFlg1=        2001
         NFxFlg=           0 DoJE=F BraDBF=F KetDBF=F FulRan=T
         Omega=  0.000000  0.000000  1.000000  0.000000  0.000000 ICntrl=       0 IOpCl=  0
         NMat0=    1 NMatS0=    1 NMatT0=    0 NMatD0=    1 NMtDS0=    0 NMtDT0=    0
         I1Cent=           0 NGrid=           0.
 Symmetry not used in FoFCou.
 FMM levels:  10  Number of levels for PrismC:   9
 E= -3946.36775256344    
 DIIS: error= 1.73D-02 at cycle   1 NSaved=   1.
 NSaved= 1 IEnMin= 1 EnMin= -3946.36775256344     IErMin= 1 ErrMin= 1.73D-02
 ErrMax= 1.73D-02 EMaxC= 1.00D-01 BMatC= 1.80D+00 BMatP= 1.80D+00
 IDIUse=3 WtCom= 8.27D-01 WtEn= 1.73D-01
 Coeff-Com:  0.100D+01
 Coeff-En:   0.100D+01
 Coeff:      0.100D+01
 Gap=     0.138 Goal=   None    Shift=    0.000
 GapD=    0.138 DampG=1.000 DampE=0.500 DampFc=0.5000 IDamp=-1.
 Damping current iteration by 5.00D-01
 RMSDP=2.11D-03 MaxDP=1.26D-01              OVMax= 2.20D-01

 Cycle   2  Pass 0  IDiag  1:
 RMSU=  7.27D-04    CP:  9.73D-01
 E= -3947.23949625320     Delta-E=       -0.871743689764 Rises=F Damp=T
 DIIS: error= 6.17D-03 at cycle   2 NSaved=   2.
 NSaved= 2 IEnMin= 2 EnMin= -3947.23949625320     IErMin= 2 ErrMin= 6.17D-03
 ErrMax= 6.17D-03 EMaxC= 1.00D-01 BMatC= 1.40D-01 BMatP= 1.80D+00
 IDIUse=3 WtCom= 9.38D-01 WtEn= 6.17D-02
 Coeff-Com:  0.369D-01 0.963D+00
 Coeff-En:   0.531D-01 0.947D+00
 Coeff:      0.379D-01 0.962D+00
 Gap=     0.131 Goal=   None    Shift=    0.000
 RMSDP=7.13D-04 MaxDP=9.15D-02 DE=-8.72D-01 OVMax= 1.96D-01

 Cycle   3  Pass 0  IDiag  1:
 RMSU=  4.96D-04    CP:  9.59D-01  9.64D-01
 E= -3948.05094528060     Delta-E=       -0.811449027398 Rises=F Damp=F
 DIIS: error= 6.65D-03 at cycle   3 NSaved=   3.
 NSaved= 3 IEnMin= 3 EnMin= -3948.05094528060     IErMin= 2 ErrMin= 6.17D-03
 ErrMax= 6.65D-03 EMaxC= 1.00D-01 BMatC= 2.18D-01 BMatP= 1.40D-01
 IDIUse=3 WtCom= 1.09D-01 WtEn= 8.91D-01
 Coeff-Com: -0.362D-01 0.584D+00 0.452D+00
 Coeff-En:   0.000D+00 0.000D+00 0.100D+01
 Coeff:     -0.396D-02 0.638D-01 0.940D+00
 Gap=     0.164 Goal=   None    Shift=    0.000
 RMSDP=1.10D-03 MaxDP=1.05D-01 DE=-8.11D-01 OVMax= 2.18D-01

 Cycle   4  Pass 0  IDiag  1:
 RMSU=  4.52D-04    CP:  9.61D-01  1.24D+00 -2.06D-01
 E= -3947.24457454249     Delta-E=        0.806370738112 Rises=F Damp=F
 DIIS: error= 1.39D-02 at cycle   4 NSaved=   4.
 NSaved= 4 IEnMin= 3 EnMin= -3948.05094528060     IErMin= 2 ErrMin= 6.17D-03
 ErrMax= 1.39D-02 EMaxC= 1.00D-01 BMatC= 9.60D-01 BMatP= 1.40D-01
 IDIUse=2 WtCom= 0.00D+00 WtEn= 1.00D+00
 Coeff-En:   0.000D+00 0.000D+00 0.756D+00 0.244D+00
 Coeff:      0.000D+00 0.000D+00 0.756D+00 0.244D+00
 Gap=     0.140 Goal=   None    Shift=    0.000
 RMSDP=5.71D-04 MaxDP=5.52D-02 DE= 8.06D-01 OVMax= 1.20D-01

 Cycle   5  Pass 0  IDiag  1:
 RMSU=  7.87D-05    CP:  9.61D-01  1.09D+00  3.87D-01  4.66D-01
 E= -3948.21801117330     Delta-E=       -0.973436630815 Rises=F Damp=F
 DIIS: error= 3.69D-03 at cycle   5 NSaved=   5.
 NSaved= 5 IEnMin= 5 EnMin= -3948.21801117330     IErMin= 5 ErrMin= 3.69D-03
 ErrMax= 3.69D-03 EMaxC= 1.00D-01 BMatC= 6.44D-02 BMatP= 1.40D-01
 IDIUse=3 WtCom= 9.63D-01 WtEn= 3.69D-02
 Coeff-Com:  0.720D-02 0.250D-02 0.369D+00 0.242D-01 0.597D+00
 Coeff-En:   0.000D+00 0.000D+00 0.280D+00 0.000D+00 0.720D+00
 Coeff:      0.694D-02 0.241D-02 0.366D+00 0.233D-01 0.601D+00
 Gap=     0.132 Goal=   None    Shift=    0.000
 RMSDP=1.97D-04 MaxDP=1.91D-02 DE=-9.73D-01 OVMax= 4.22D-02

 Cycle   6  Pass 0  IDiag  1:
 RMSU=  3.57D-05    CP:  9.60D-01  1.04D+00  5.94D-01  3.08D-01  5.42D-01
 E= -3948.28473587599     Delta-E=       -0.066724702690 Rises=F Damp=F
 DIIS: error= 8.80D-04 at cycle   6 NSaved=   6.
 NSaved= 6 IEnMin= 6 EnMin= -3948.28473587599     IErMin= 6 ErrMin= 8.80D-04
 ErrMax= 8.80D-04 EMaxC= 1.00D-01 BMatC= 1.34D-03 BMatP= 6.44D-02
 IDIUse=3 WtCom= 9.91D-01 WtEn= 8.80D-03
 Coeff-Com:  0.200D-02-0.548D-02 0.121D+00-0.437D-01 0.395D+00 0.532D+00
 Coeff-En:   0.000D+00 0.000D+00 0.000D+00 0.000D+00 0.000D+00 0.100D+01
 Coeff:      0.198D-02-0.543D-02 0.119D+00-0.433D-01 0.391D+00 0.536D+00
 Gap=     0.131 Goal=   None    Shift=    0.000
 RMSDP=3.37D-05 MaxDP=2.23D-03 DE=-6.67D-02 OVMax= 6.85D-03

 Cycle   7  Pass 0  IDiag  1:
 RMSU=  9.90D-06    CP:  9.60D-01  1.04D+00  5.99D-01  3.05D-01  7.06D-01
                    CP:  5.20D-01
 E= -3948.28608158507     Delta-E=       -0.001345709079 Rises=F Damp=F
 DIIS: error= 3.19D-04 at cycle   7 NSaved=   7.
 NSaved= 7 IEnMin= 7 EnMin= -3948.28608158507     IErMin= 7 ErrMin= 3.19D-04
 ErrMax= 3.19D-04 EMaxC= 1.00D-01 BMatC= 1.36D-04 BMatP= 1.34D-03
 IDIUse=3 WtCom= 9.97D-01 WtEn= 3.19D-03
 Coeff-Com:  0.923D-03-0.311D-02 0.622D-01-0.310D-01 0.232D+00 0.357D+00
 Coeff-Com:  0.381D+00
 Coeff-En:   0.000D+00 0.000D+00 0.000D+00 0.000D+00 0.000D+00 0.707D-02
 Coeff-En:   0.993D+00
 Coeff:      0.920D-03-0.310D-02 0.620D-01-0.309D-01 0.232D+00 0.356D+00
 Coeff:      0.383D+00
 Gap=     0.131 Goal=   None    Shift=    0.000
 RMSDP=1.03D-05 MaxDP=9.39D-04 DE=-1.35D-03 OVMax= 2.40D-03

 Cycle   8  Pass 0  IDiag  1:
 RMSU=  3.36D-06    CP:  9.60D-01  1.04D+00  5.99D-01  3.04D-01  6.98D-01
                    CP:  5.89D-01  4.14D-01
 E= -3948.28621832787     Delta-E=       -0.000136742798 Rises=F Damp=F
 DIIS: error= 7.79D-05 at cycle   8 NSaved=   8.
 NSaved= 8 IEnMin= 8 EnMin= -3948.28621832787     IErMin= 8 ErrMin= 7.79D-05
 ErrMax= 7.79D-05 EMaxC= 1.00D-01 BMatC= 8.77D-06 BMatP= 1.36D-04
 IDIUse=1 WtCom= 1.00D+00 WtEn= 0.00D+00
 Coeff-Com:  0.334D-03-0.102D-02 0.252D-01-0.147D-01 0.996D-01 0.161D+00
 Coeff-Com:  0.236D+00 0.493D+00
 Coeff:      0.334D-03-0.102D-02 0.252D-01-0.147D-01 0.996D-01 0.161D+00
 Coeff:      0.236D+00 0.493D+00
 Gap=     0.131 Goal=   None    Shift=    0.000
 RMSDP=3.10D-06 MaxDP=4.88D-04 DE=-1.37D-04 OVMax= 6.08D-04

 Initial convergence to 1.0D-05 achieved.  Increase integral accuracy.
 Cycle   9  Pass 1  IDiag  1:
 E= -3948.28632401143     Delta-E=       -0.000105683561 Rises=F Damp=F
 DIIS: error= 1.37D-04 at cycle   1 NSaved=   1.
 NSaved= 1 IEnMin= 1 EnMin= -3948.28632401143     IErMin= 1 ErrMin= 1.37D-04
 ErrMax= 1.37D-04 EMaxC= 1.00D-01 BMatC= 2.50D-05 BMatP= 2.50D-05
 IDIUse=3 WtCom= 9.99D-01 WtEn= 1.37D-03
 Coeff-Com:  0.100D+01
 Coeff-En:   0.100D+01
 Coeff:      0.100D+01
 Gap=     0.131 Goal=   None    Shift=    0.000
 RMSDP=3.10D-06 MaxDP=4.88D-04 DE=-1.06D-04 OVMax= 6.89D-04

 Cycle  10  Pass 1  IDiag  1:
 RMSU=  4.14D-05    CP:  1.00D+00
 E= -3948.28634262647     Delta-E=       -0.000018615043 Rises=F Damp=F
 DIIS: error= 4.13D-05 at cycle   2 NSaved=   2.
 NSaved= 2 IEnMin= 2 EnMin= -3948.28634262647     IErMin= 2 ErrMin= 4.13D-05
 ErrMax= 4.13D-05 EMaxC= 1.00D-01 BMatC= 5.16D-06 BMatP= 2.50D-05
 IDIUse=1 WtCom= 1.00D+00 WtEn= 0.00D+00
 Coeff-Com:  0.212D+00 0.788D+00
 Coeff:      0.212D+00 0.788D+00
 Gap=     0.131 Goal=   None    Shift=    0.000
 RMSDP=4.95D-06 MaxDP=7.13D-04 DE=-1.86D-05 OVMax= 1.12D-03

 Cycle  11  Pass 1  IDiag  1:
 RMSU=  3.49D-06    CP:  1.00D+00  1.01D+00
 E= -3948.28633316978     Delta-E=        0.000009456693 Rises=F Damp=F
 DIIS: error= 7.48D-05 at cycle   3 NSaved=   3.
 NSaved= 3 IEnMin= 2 EnMin= -3948.28634262647     IErMin= 2 ErrMin= 4.13D-05
 ErrMax= 7.48D-05 EMaxC= 1.00D-01 BMatC= 1.35D-05 BMatP= 5.16D-06
 IDIUse=1 WtCom= 1.00D+00 WtEn= 0.00D+00
 Coeff-Com:  0.550D-03 0.619D+00 0.381D+00
 Coeff:      0.550D-03 0.619D+00 0.381D+00
 Gap=     0.131 Goal=   None    Shift=    0.000
 RMSDP=3.17D-06 MaxDP=4.46D-04 DE= 9.46D-06 OVMax= 7.32D-04

 Cycle  12  Pass 1  IDiag  1:
 RMSU=  3.47D-07    CP:  1.00D+00  1.01D+00  3.67D-01
 E= -3948.28634804679     Delta-E=       -0.000014877009 Rises=F Damp=F
 DIIS: error= 8.50D-06 at cycle   4 NSaved=   4.
 NSaved= 4 IEnMin= 4 EnMin= -3948.28634804679     IErMin= 4 ErrMin= 8.50D-06
 ErrMax= 8.50D-06 EMaxC= 1.00D-01 BMatC= 2.13D-07 BMatP= 5.16D-06
 IDIUse=1 WtCom= 1.00D+00 WtEn= 0.00D+00
 Coeff-Com: -0.466D-02 0.373D+00 0.240D+00 0.392D+00
 Coeff:     -0.466D-02 0.373D+00 0.240D+00 0.392D+00
 Gap=     0.131 Goal=   None    Shift=    0.000
 RMSDP=3.28D-07 MaxDP=2.29D-05 DE=-1.49D-05 OVMax= 7.11D-05

 Cycle  13  Pass 1  IDiag  1:
 RMSU=  1.13D-07    CP:  1.00D+00  1.01D+00  3.90D-01  4.66D-01
 E= -3948.28634824564     Delta-E=       -0.000000198852 Rises=F Damp=F
 DIIS: error= 1.77D-06 at cycle   5 NSaved=   5.
 NSaved= 5 IEnMin= 5 EnMin= -3948.28634824564     IErMin= 5 ErrMin= 1.77D-06
 ErrMax= 1.77D-06 EMaxC= 1.00D-01 BMatC= 4.65D-09 BMatP= 2.13D-07
 IDIUse=1 WtCom= 1.00D+00 WtEn= 0.00D+00
 Coeff-Com: -0.272D-02 0.202D+00 0.130D+00 0.231D+00 0.440D+00
 Coeff:     -0.272D-02 0.202D+00 0.130D+00 0.231D+00 0.440D+00
 Gap=     0.131 Goal=   None    Shift=    0.000
 RMSDP=7.66D-08 MaxDP=7.44D-06 DE=-1.99D-07 OVMax= 1.49D-05

 Cycle  14  Pass 1  IDiag  1:
 RMSU=  4.09D-08    CP:  1.00D+00  1.01D+00  3.88D-01  5.05D-01  7.16D-01
 E= -3948.28634824961     Delta-E=       -0.000000003969 Rises=F Damp=F
 DIIS: error= 6.90D-07 at cycle   6 NSaved=   6.
 NSaved= 6 IEnMin= 6 EnMin= -3948.28634824961     IErMin= 6 ErrMin= 6.90D-07
 ErrMax= 6.90D-07 EMaxC= 1.00D-01 BMatC= 7.83D-10 BMatP= 4.65D-09
 IDIUse=1 WtCom= 1.00D+00 WtEn= 0.00D+00
 Coeff-Com: -0.710D-03 0.468D-01 0.301D-01 0.619D-01 0.294D+00 0.568D+00
 Coeff:     -0.710D-03 0.468D-01 0.301D-01 0.619D-01 0.294D+00 0.568D+00
 Gap=     0.131 Goal=   None    Shift=    0.000
 RMSDP=2.89D-08 MaxDP=1.73D-06 DE=-3.97D-09 OVMax= 5.46D-06

 Cycle  15  Pass 1  IDiag  1:
 RMSU=  1.34D-08    CP:  1.00D+00  1.01D+00  3.88D-01  5.01D-01  7.94D-01
                    CP:  6.96D-01
 E= -3948.28634825027     Delta-E=       -0.000000000662 Rises=F Damp=F
 DIIS: error= 1.98D-07 at cycle   7 NSaved=   7.
 NSaved= 7 IEnMin= 7 EnMin= -3948.28634825027     IErMin= 7 ErrMin= 1.98D-07
 ErrMax= 1.98D-07 EMaxC= 1.00D-01 BMatC= 1.56D-10 BMatP= 7.83D-10
 IDIUse=1 WtCom= 1.00D+00 WtEn= 0.00D+00
 Coeff-Com: -0.928D-04 0.285D-02 0.182D-02 0.850D-02 0.136D+00 0.381D+00
 Coeff-Com:  0.470D+00
 Coeff:     -0.928D-04 0.285D-02 0.182D-02 0.850D-02 0.136D+00 0.381D+00
 Coeff:      0.470D+00
 Gap=     0.131 Goal=   None    Shift=    0.000
 RMSDP=1.19D-08 MaxDP=8.10D-07 DE=-6.62D-10 OVMax= 2.53D-06

 Cycle  16  Pass 1  IDiag  1:
 RMSU=  4.95D-09    CP:  1.00D+00  1.01D+00  3.88D-01  5.02D-01  7.95D-01
                    CP:  7.65D-01  5.40D-01
 E= -3948.28634825065     Delta-E=       -0.000000000378 Rises=F Damp=F
 DIIS: error= 6.36D-08 at cycle   8 NSaved=   8.
 NSaved= 8 IEnMin= 8 EnMin= -3948.28634825065     IErMin= 8 ErrMin= 6.36D-08
 ErrMax= 6.36D-08 EMaxC= 1.00D-01 BMatC= 1.51D-11 BMatP= 1.56D-10
 IDIUse=1 WtCom= 1.00D+00 WtEn= 0.00D+00
 Coeff-Com:  0.333D-04-0.431D-02-0.277D-02-0.295D-02 0.464D-01 0.159D+00
 Coeff-Com:  0.293D+00 0.512D+00
 Coeff:      0.333D-04-0.431D-02-0.277D-02-0.295D-02 0.464D-01 0.159D+00
 Coeff:      0.293D+00 0.512D+00
 Gap=     0.131 Goal=   None    Shift=    0.000
 RMSDP=3.61D-09 MaxDP=2.78D-07 DE=-3.78D-10 OVMax= 7.10D-07

 SCF Done:  E(RB3LYP) =  -3948.28634825     A.U. after   16 cycles
             Convg  =    0.3611D-08             -V/T =  2.0095
 KE= 3.911045269676D+03 PE=-4.347636998688D+04 EE= 1.846556948497D+04
 Leave Link  502 at Sat Mar 28 17:41:31 2015, MaxMem= 1073741824 cpu:   19986.3
 (Enter /opt/g09/l601.exe)
 Copying SCF densities to generalized density rwf, IOpCl= 0 IROHF=0.

 **********************************************************************

            Population analysis using the SCF density.

 **********************************************************************

 Orbital symmetries:
       Occupied  (A) (A) (A) (A) (A) (A) (A) (A) (A) (A) (A) (A)
                 (A) (A) (A) (A) (A) (A) (A) (A) (A) (A) (A) (A)
                 (A) (A) (A) (A) (A) (A) (A) (A) (A) (A) (A) (A)
                 (A) (A) (A) (A) (A) (A) (A) (A) (A) (A) (A) (A)
                 (A) (A) (A) (A) (A) (A) (A) (A) (A) (A) (A) (A)
                 (A) (A) (A) (A) (A) (A) (A) (A) (A) (A) (A) (A)
                 (A) (A) (A) (A) (A) (A) (A) (A) (A) (A) (A) (A)
                 (A) (A) (A) (A) (A) (A) (A) (A) (A) (A) (A) (A)
                 (A) (A) (A) (A) (A) (A) (A) (A) (A) (A) (A) (A)
                 (A) (A) (A) (A) (A) (A) (A) (A) (A) (A) (A) (A)
                 (A) (A) (A) (A) (A) (A) (A) (A) (A) (A) (A) (A)
                 (A) (A) (A) (A) (A) (A) (A) (A) (A) (A) (A) (A)
                 (A) (A) (A) (A) (A) (A) (A) (A) (A) (A) (A) (A)
                 (A) (A) (A) (A) (A) (A) (A) (A) (A) (A) (A) (A)
                 (A) (A) (A) (A) (A) (A) (A) (A) (A) (A) (A) (A)
                 (A) (A) (A) (A) (A) (A) (A) (A) (A) (A) (A) (A)
                 (A) (A) (A) (A) (A) (A) (A) (A) (A) (A) (A) (A)
                 (A) (A) (A) (A) (A) (A) (A) (A) (A) (A) (A) (A)
                 (A) (A) (A) (A) (A) (A) (A) (A) (A) (A) (A) (A)
                 (A) (A) (A) (A) (A) (A) (A) (A) (A) (A) (A) (A)
                 (A) (A) (A) (A) (A) (A) (A) (A) (A) (A) (A) (A)
                 (A) (A) (A) (A) (A) (A) (A) (A) (A) (A) (A) (A)
                 (A) (A) (A) (A) (A) (A) (A) (A) (A) (A) (A) (A)
                 (A) (A) (A) (A) (A) (A) (A) (A) (A) (A) (A) (A)
                 (A) (A) (A) (A) (A) (A) (A) (A) (A) (A) (A) (A)
                 (A) (A) (A) (A) (A) (A) (A) (A) (A) (A) (A) (A)
                 (A) (A) (A) (A) (A) (A) (A) (A) (A) (A) (A)
       Virtual   (A) (A) (A) (A) (A) (A) (A) (A) (A) (A) (A) (A)
                 (A) (A) (A) (A) (A) (A) (A) (A) (A) (A) (A) (A)
                 (A) (A) (A) (A) (A) (A) (A) (A) (A) (A) (A) (A)
                 (A) (A) (A) (A) (A) (A) (A) (A) (A) (A) (A) (A)
                 (A) (A) (A) (A) (A) (A) (A) (A) (A) (A) (A) (A)
                 (A) (A) (A) (A) (A) (A) (A) (A) (A) (A) (A) (A)
                 (A) (A) (A) (A) (A) (A) (A) (A) (A) (A) (A) (A)
                 (A) (A) (A) (A) (A) (A) (A) (A) (A) (A) (A) (A)
                 (A) (A) (A) (A) (A) (A) (A) (A) (A) (A) (A) (A)
                 (A) (A) (A) (A) (A) (A) (A) (A) (A) (A) (A) (A)
                 (A) (A) (A) (A) (A) (A) (A) (A) (A) (A) (A) (A)
                 (A) (A) (A) (A) (A) (A) (A) (A) (A) (A) (A) (A)
                 (A) (A) (A) (A) (A) (A) (A) (A) (A) (A) (A) (A)
                 (A) (A) (A) (A) (A) (A) (A) (A) (A) (A) (A) (A)
                 (A) (A) (A) (A) (A) (A) (A) (A) (A) (A) (A) (A)
                 (A) (A) (A) (A) (A) (A) (A) (A) (A) (A) (A) (A)
                 (A) (A) (A) (A) (A) (A) (A) (A) (A) (A) (A) (A)
                 (A) (A) (A) (A) (A) (A) (A) (A) (A) (A) (A) (A)
                 (A) (A) (A) (A) (A) (A) (A) (A) (A) (A) (A) (A)
                 (A) (A) (A) (A) (A) (A) (A) (A) (A) (A) (A) (A)
                 (A) (A) (A) (A) (A) (A) (A) (A) (A) (A) (A) (A)
                 (A) (A) (A) (A) (A) (A) (A) (A) (A) (A) (A) (A)
                 (A) (A) (A) (A) (A) (A) (A) (A) (A) (A) (A) (A)
                 (A) (A) (A) (A) (A) (A) (A) (A) (A) (A) (A) (A)
                 (A) (A) (A) (A) (A) (A) (A) (A) (A) (A) (A) (A)
                 (A) (A) (A) (A) (A) (A) (A) (A) (A) (A) (A) (A)
                 (A) (A) (A) (A) (A) (A) (A) (A) (A) (A) (A) (A)
                 (A) (A) (A) (A) (A) (A) (A) (A) (A) (A) (A) (A)
                 (A) (A) (A) (A) (A) (A) (A) (A) (A) (A) (A) (A)
                 (A) (A) (A) (A) (A) (A) (A) (A) (A) (A) (A) (A)
                 (A) (A) (A) (A) (A) (A) (A) (A) (A) (A) (A) (A)
                 (A) (A) (A) (A) (A) (A) (A) (A) (A) (A) (A) (A)
                 (A) (A) (A) (A) (A) (A) (A) (A) (A) (A) (A) (A)
                 (A) (A) (A) (A) (A) (A) (A) (A) (A) (A) (A) (A)
                 (A) (A) (A) (A) (A) (A) (A) (A) (A) (A) (A) (A)
                 (A) (A) (A) (A) (A) (A) (A) (A) (A) (A) (A) (A)
                 (A) (A) (A) (A) (A) (A) (A) (A) (A) (A) (A) (A)
                 (A) (A) (A) (A) (A) (A) (A) (A) (A) (A) (A) (A)
                 (A) (A) (A) (A) (A) (A) (A) (A) (A) (A) (A) (A)
                 (A) (A) (A) (A) (A) (A) (A) (A) (A) (A) (A) (A)
                 (A) (A) (A) (A) (A) (A) (A) (A) (A) (A) (A) (A)
                 (A) (A) (A) (A) (A) (A) (A) (A) (A) (A) (A) (A)
                 (A) (A) (A) (A) (A) (A) (A) (A) (A) (A) (A) (A)
                 (A) (A) (A) (A) (A) (A) (A) (A) (A) (A) (A) (A)
                 (A) (A) (A) (A) (A) (A) (A) (A) (A) (A) (A) (A)
                 (A) (A) (A) (A) (A) (A) (A) (A) (A) (A) (A) (A)
                 (A) (A) (A) (A) (A) (A) (A) (A) (A) (A) (A) (A)
                 (A) (A) (A) (A) (A) (A) (A) (A) (A) (A) (A) (A)
                 (A) (A) (A) (A) (A) (A) (A) (A) (A) (A) (A) (A)
                 (A) (A) (A) (A) (A) (A) (A) (A) (A) (A) (A) (A)
                 (A) (A) (A) (A) (A) (A) (A) (A) (A) (A) (A) (A)
                 (A) (A) (A) (A) (A) (A) (A) (A) (A) (A) (A) (A)
                 (A) (A) (A) (A) (A) (A) (A) (A) (A) (A) (A) (A)
                 (A) (A) (A) (A) (A) (A) (A) (A) (A) (A) (A) (A)
                 (A) (A) (A) (A) (A) (A) (A) (A) (A) (A) (A) (A)
                 (A) (A) (A) (A) (A) (A) (A) (A) (A) (A) (A) (A)
                 (A) (A) (A) (A) (A) (A) (A) (A) (A) (A) (A) (A)
                 (A) (A) (A) (A) (A) (A) (A) (A) (A) (A) (A) (A)
                 (A) (A) (A) (A) (A) (A) (A) (A) (A) (A) (A) (A)
                 (A) (A) (A) (A) (A) (A) (A) (A) (A) (A) (A) (A)
                 (A) (A) (A) (A) (A) (A) (A) (A) (A) (A) (A) (A)
                 (A) (A) (A) (A) (A) (A) (A) (A) (A) (A) (A) (A)
                 (A) (A) (A) (A) (A) (A) (A) (A) (A) (A) (A) (A)
                 (A) (A) (A) (A) (A) (A) (A) (A) (A) (A) (A) (A)
                 (A) (A) (A) (A) (A) (A) (A) (A) (A) (A) (A) (A)
                 (A) (A) (A) (A) (A) (A) (A) (A) (A) (A) (A) (A)
                 (A) (A) (A) (A) (A) (A) (A) (A) (A) (A) (A) (A)
                 (A) (A) (A) (A) (A) (A) (A) (A) (A) (A) (A) (A)
                 (A) (A) (A) (A) (A) (A) (A) (A) (A) (A) (A) (A)
                 (A) (A) (A) (A) (A) (A) (A) (A) (A) (A) (A) (A)
                 (A) (A) (A) (A) (A) (A) (A) (A) (A) (A) (A) (A)
                 (A) (A) (A) (A) (A) (A) (A) (A) (A) (A) (A) (A)
                 (A) (A) (A) (A) (A) (A) (A) (A) (A) (A) (A) (A)
                 (A) (A) (A) (A) (A) (A) (A) (A) (A) (A) (A) (A)
                 (A) (A) (A) (A) (A) (A) (A) (A) (A) (A) (A) (A)
                 (A) (A) (A) (A) (A) (A) (A) (A) (A) (A) (A) (A)
                 (A) (A) (A) (A) (A) (A) (A) (A) (A) (A) (A) (A)
                 (A) (A) (A) (A) (A) (A) (A) (A) (A) (A) (A) (A)
                 (A) (A) (A) (A) (A) (A) (A) (A) (A) (A) (A) (A)
                 (A) (A) (A) (A) (A) (A) (A) (A) (A) (A) (A) (A)
                 (A) (A) (A) (A) (A) (A) (A) (A) (A) (A) (A) (A)
                 (A) (A) (A) (A) (A) (A) (A) (A) (A) (A) (A) (A)
                 (A) (A) (A) (A) (A) (A) (A) (A) (A) (A) (A) (A)
                 (A) (A) (A) (A) (A) (A) (A) (A) (A) (A) (A) (A)
                 (A) (A) (A) (A) (A) (A) (A) (A) (A) (A) (A) (A)
                 (A) (A) (A) (A) (A) (A) (A) (A) (A) (A) (A) (A)
                 (A) (A) (A) (A) (A) (A) (A) (A) (A) (A) (A) (A)
                 (A) (A) (A) (A) (A) (A) (A) (A) (A) (A) (A) (A)
                 (A) (A) (A) (A) (A) (A) (A) (A) (A) (A) (A) (A)
                 (A) (A) (A) (A) (A) (A) (A) (A) (A) (A) (A) (A)
                 (A) (A) (A) (A) (A) (A) (A) (A) (A) (A) (A) (A)
                 (A) (A) (A) (A) (A) (A) (A) (A) (A) (A) (A) (A)
                 (A) (A) (A) (A) (A) (A) (A) (A) (A) (A) (A) (A)
                 (A) (A) (A) (A) (A) (A) (A) (A) (A) (A) (A) (A)
                 (A) (A) (A) (A) (A) (A) (A) (A) (A) (A) (A) (A)
                 (A) (A) (A) (A) (A) (A) (A) (A) (A) (A) (A) (A)
                 (A) (A) (A) (A) (A) (A) (A) (A) (A) (A) (A) (A)
                 (A) (A) (A) (A) (A) (A) (A) (A) (A) (A) (A) (A)
                 (A) (A) (A) (A) (A) (A) (A) (A) (A) (A) (A) (A)
                 (A) (A) (A) (A) (A) (A) (A) (A) (A) (A) (A) (A)
                 (A) (A) (A) (A) (A) (A) (A) (A)
 The electronic state is 1-A.
 Alpha  occ. eigenvalues --  -19.18181 -19.17707 -19.17507 -19.17429 -19.16920
 Alpha  occ. eigenvalues --  -19.16840 -19.16419 -19.15281 -14.35989 -14.35247
 Alpha  occ. eigenvalues --  -14.35243 -14.35202 -10.25186 -10.24505 -10.24442
 Alpha  occ. eigenvalues --  -10.24348 -10.24294 -10.23939 -10.23706 -10.23699
 Alpha  occ. eigenvalues --  -10.23657 -10.23583 -10.23422 -10.23372 -10.23173
 Alpha  occ. eigenvalues --  -10.23108 -10.22648 -10.22622 -10.22581 -10.22549
 Alpha  occ. eigenvalues --  -10.22388 -10.22125 -10.22119 -10.22089 -10.21970
 Alpha  occ. eigenvalues --  -10.21939 -10.21855 -10.21788 -10.21787 -10.21612
 Alpha  occ. eigenvalues --  -10.21000 -10.19325 -10.19287 -10.19191 -10.19184
 Alpha  occ. eigenvalues --  -10.19148 -10.19116 -10.19027 -10.18879 -10.18834
 Alpha  occ. eigenvalues --  -10.18806 -10.18794 -10.18710 -10.18704 -10.18680
 Alpha  occ. eigenvalues --  -10.18644 -10.18629 -10.18541 -10.18450 -10.18410
 Alpha  occ. eigenvalues --  -10.18402 -10.18359 -10.18323 -10.18284 -10.18282
 Alpha  occ. eigenvalues --  -10.18224 -10.18207 -10.18065 -10.18047 -10.17986
 Alpha  occ. eigenvalues --  -10.17974 -10.17952 -10.17927 -10.17906 -10.17905
 Alpha  occ. eigenvalues --  -10.17888 -10.17874 -10.17851 -10.17849 -10.17810
 Alpha  occ. eigenvalues --  -10.17640 -10.17606 -10.17483 -10.17422 -10.17318
 Alpha  occ. eigenvalues --  -10.17279 -10.17023 -10.16852 -10.16839 -10.16788
 Alpha  occ. eigenvalues --  -10.16732 -10.16660 -10.16634  -1.06967  -1.06236
 Alpha  occ. eigenvalues --   -1.06120  -1.06043  -1.05382  -1.05261  -1.04942
 Alpha  occ. eigenvalues --   -1.03984  -0.95860  -0.95140  -0.95124  -0.95051
 Alpha  occ. eigenvalues --   -0.89488  -0.86497  -0.85207  -0.84515  -0.84472
 Alpha  occ. eigenvalues --   -0.84258  -0.84170  -0.83875  -0.83371  -0.82926
 Alpha  occ. eigenvalues --   -0.82313  -0.81937  -0.79874  -0.77702  -0.76525
 Alpha  occ. eigenvalues --   -0.75847  -0.75604  -0.75300  -0.75174  -0.75167
 Alpha  occ. eigenvalues --   -0.74892  -0.74590  -0.74492  -0.74244  -0.74013
 Alpha  occ. eigenvalues --   -0.73949  -0.73843  -0.73794  -0.73541  -0.73392
 Alpha  occ. eigenvalues --   -0.73129  -0.72951  -0.71665  -0.71536  -0.70203
 Alpha  occ. eigenvalues --   -0.69911  -0.69247  -0.69165  -0.69067  -0.68826
 Alpha  occ. eigenvalues --   -0.68221  -0.68144  -0.67902  -0.67244  -0.67234
 Alpha  occ. eigenvalues --   -0.63983  -0.63319  -0.62282  -0.61839  -0.61566
 Alpha  occ. eigenvalues --   -0.61100  -0.60900  -0.60659  -0.60023  -0.59966
 Alpha  occ. eigenvalues --   -0.59564  -0.58971  -0.58859  -0.58800  -0.58382
 Alpha  occ. eigenvalues --   -0.58324  -0.58125  -0.57893  -0.57530  -0.57149
 Alpha  occ. eigenvalues --   -0.56574  -0.56150  -0.55893  -0.55276  -0.54225
 Alpha  occ. eigenvalues --   -0.53449  -0.53287  -0.53119  -0.52926  -0.52710
 Alpha  occ. eigenvalues --   -0.52316  -0.51560  -0.51265  -0.50582  -0.50392
 Alpha  occ. eigenvalues --   -0.50016  -0.49266  -0.48987  -0.48866  -0.48786
 Alpha  occ. eigenvalues --   -0.48341  -0.48125  -0.48007  -0.47932  -0.47674
 Alpha  occ. eigenvalues --   -0.47575  -0.47464  -0.47143  -0.47127  -0.47084
 Alpha  occ. eigenvalues --   -0.46934  -0.46853  -0.46724  -0.46620  -0.46460
 Alpha  occ. eigenvalues --   -0.46370  -0.46347  -0.46061  -0.46002  -0.45984
 Alpha  occ. eigenvalues --   -0.45578  -0.45507  -0.45381  -0.45183  -0.44814
 Alpha  occ. eigenvalues --   -0.44725  -0.44535  -0.44505  -0.44153  -0.43987
 Alpha  occ. eigenvalues --   -0.43558  -0.43347  -0.43338  -0.43196  -0.43145
 Alpha  occ. eigenvalues --   -0.42792  -0.42694  -0.42525  -0.42327  -0.42174
 Alpha  occ. eigenvalues --   -0.42114  -0.42020  -0.41916  -0.41710  -0.41614
 Alpha  occ. eigenvalues --   -0.41419  -0.41203  -0.41131  -0.40850  -0.40396
 Alpha  occ. eigenvalues --   -0.40296  -0.40064  -0.39773  -0.39271  -0.38973
 Alpha  occ. eigenvalues --   -0.38313  -0.38038  -0.37699  -0.37679  -0.37658
 Alpha  occ. eigenvalues --   -0.37381  -0.37349  -0.37096  -0.36981  -0.36849
 Alpha  occ. eigenvalues --   -0.36821  -0.36760  -0.36632  -0.36486  -0.36396
 Alpha  occ. eigenvalues --   -0.36307  -0.36206  -0.36080  -0.35973  -0.35919
 Alpha  occ. eigenvalues --   -0.35813  -0.35559  -0.35520  -0.35377  -0.35149
 Alpha  occ. eigenvalues --   -0.35071  -0.34697  -0.34643  -0.34481  -0.34375
 Alpha  occ. eigenvalues --   -0.34027  -0.33653  -0.33325  -0.33202  -0.32897
 Alpha  occ. eigenvalues --   -0.32686  -0.32659  -0.32606  -0.32478  -0.32331
 Alpha  occ. eigenvalues --   -0.32092  -0.31940  -0.31873  -0.31787  -0.31661
 Alpha  occ. eigenvalues --   -0.31602  -0.31580  -0.31092  -0.30886  -0.29787
 Alpha  occ. eigenvalues --   -0.29225  -0.28552  -0.28003  -0.27442  -0.26538
 Alpha  occ. eigenvalues --   -0.26255  -0.26091  -0.25389  -0.25132  -0.24657
 Alpha  occ. eigenvalues --   -0.24469  -0.23998  -0.23838  -0.23606  -0.23048
 Alpha  occ. eigenvalues --   -0.22838  -0.22589  -0.22175  -0.22061  -0.21609
 Alpha  occ. eigenvalues --   -0.21528  -0.21121  -0.21069  -0.20634  -0.18472
 Alpha  occ. eigenvalues --   -0.17972  -0.17414  -0.16331
 Alpha virt. eigenvalues --   -0.03253  -0.02578  -0.01522  -0.01178  -0.00921
 Alpha virt. eigenvalues --   -0.00413  -0.00230  -0.00110   0.00096   0.00715
 Alpha virt. eigenvalues --    0.01039   0.01237   0.01317   0.01676   0.01793
 Alpha virt. eigenvalues --    0.02095   0.02289   0.02413   0.02533   0.02976
 Alpha virt. eigenvalues --    0.03523   0.03773   0.05324   0.06455   0.08341
 Alpha virt. eigenvalues --    0.08548   0.08927   0.09131   0.09424   0.09718
 Alpha virt. eigenvalues --    0.10001   0.10044   0.10420   0.10615   0.10873
 Alpha virt. eigenvalues --    0.10951   0.11115   0.11191   0.11359   0.11684
 Alpha virt. eigenvalues --    0.12013   0.12072   0.12419   0.12560   0.12751
 Alpha virt. eigenvalues --    0.12993   0.13241   0.13436   0.13475   0.13707
 Alpha virt. eigenvalues --    0.14051   0.14148   0.14221   0.14433   0.14578
 Alpha virt. eigenvalues --    0.14619   0.14788   0.14855   0.15046   0.15235
 Alpha virt. eigenvalues --    0.15472   0.15608   0.15676   0.15737   0.15911
 Alpha virt. eigenvalues --    0.16126   0.16203   0.16355   0.16396   0.16458
 Alpha virt. eigenvalues --    0.16504   0.16562   0.16729   0.16791   0.16872
 Alpha virt. eigenvalues --    0.17014   0.17069   0.17123   0.17329   0.17382
 Alpha virt. eigenvalues --    0.17396   0.17514   0.17621   0.17664   0.17758
 Alpha virt. eigenvalues --    0.17932   0.18009   0.18131   0.18297   0.18529
 Alpha virt. eigenvalues --    0.18701   0.18740   0.18835   0.18906   0.19000
 Alpha virt. eigenvalues --    0.19101   0.19124   0.19282   0.19372   0.19541
 Alpha virt. eigenvalues --    0.19594   0.19719   0.19973   0.20195   0.20447
 Alpha virt. eigenvalues --    0.20503   0.20723   0.20997   0.21460   0.21613
 Alpha virt. eigenvalues --    0.21692   0.21869   0.22217   0.22505   0.22815
 Alpha virt. eigenvalues --    0.22982   0.23305   0.23750   0.24520   0.24991
 Alpha virt. eigenvalues --    0.25518   0.25867   0.25912   0.26012   0.26326
 Alpha virt. eigenvalues --    0.26705   0.26786   0.26853   0.27050   0.27415
 Alpha virt. eigenvalues --    0.27807   0.28118   0.28649   0.28936   0.29017
 Alpha virt. eigenvalues --    0.29125   0.29379   0.29447   0.29767   0.29877
 Alpha virt. eigenvalues --    0.29921   0.30255   0.30337   0.30502   0.30830
 Alpha virt. eigenvalues --    0.30989   0.31185   0.31326   0.31758   0.31810
 Alpha virt. eigenvalues --    0.32062   0.32644   0.32902   0.33037   0.33464
 Alpha virt. eigenvalues --    0.33981   0.34103   0.34246   0.34375   0.35005
 Alpha virt. eigenvalues --    0.35236   0.35483   0.35744   0.35840   0.36420
 Alpha virt. eigenvalues --    0.36576   0.36749   0.37377   0.37458   0.38017
 Alpha virt. eigenvalues --    0.38881   0.39033   0.39391   0.39463   0.40001
 Alpha virt. eigenvalues --    0.40207   0.40436   0.40932   0.41226   0.41708
 Alpha virt. eigenvalues --    0.41936   0.42327   0.42815   0.44435   0.44569
 Alpha virt. eigenvalues --    0.44947   0.45167   0.45372   0.45442   0.45831
 Alpha virt. eigenvalues --    0.46364   0.46523   0.47466   0.47717   0.48202
 Alpha virt. eigenvalues --    0.48402   0.48808   0.48991   0.49252   0.49817
 Alpha virt. eigenvalues --    0.50055   0.50297   0.50596   0.50882   0.51027
 Alpha virt. eigenvalues --    0.51187   0.51380   0.51494   0.51712   0.51776
 Alpha virt. eigenvalues --    0.52131   0.52306   0.52357   0.52445   0.52493
 Alpha virt. eigenvalues --    0.52533   0.52757   0.52919   0.53052   0.53172
[...]
 Alpha virt. eigenvalues --    1.99789   2.00073   2.00535   2.00758   2.00892
 Alpha virt. eigenvalues --    2.01220   2.01466   2.01605   2.01986   2.02015
 Alpha virt. eigenvalues --    2.02418   2.02757   2.03000   2.03353   2.03895
 Alpha virt. eigenvalues --    2.04122   2.04380   2.04671   2.04800   2.05072
 Alpha virt. eigenvalues --    2.06144   2.06384   2.07314   2.07942   2.08286
 Alpha virt. eigenvalues --    2.08466   2.08591   2.08968   2.09102   2.09255
 Alpha virt. eigenvalues --    2.09285   2.09433   2.09549   2.10416   2.10702
 Alpha virt. eigenvalues --    2.10991   2.11156   2.11249   2.11732   2.11791
 Alpha virt. eigenvalues --    2.11906   2.12292   2.12452   2.12749   2.12937
 Alpha virt. eigenvalues --    2.13114   2.13414   2.13475   2.13866   2.13979
 Alpha virt. eigenvalues --    2.14430   2.14822   2.14922   2.15132   2.15279
 Alpha virt. eigenvalues --    2.15690   2.15942   2.16144   2.16242   2.16467
 Alpha virt. eigenvalues --    2.16713   2.16904   2.17062   2.17358   2.17635
 Alpha virt. eigenvalues --    2.17792   2.17940   2.18447   2.18618   2.19002
 Alpha virt. eigenvalues --    2.19124   2.19626   2.20184   2.20599   2.21137
 Alpha virt. eigenvalues --    2.21347   2.21652   2.21970   2.22088   2.22451
 Alpha virt. eigenvalues --    2.22665   2.22876   2.23220   2.23448   2.23624
 Alpha virt. eigenvalues --    2.23669   2.23804   2.24209   2.24253   2.24463
 Alpha virt. eigenvalues --    2.25162   2.25455   2.25637   2.25693   2.26177
 Alpha virt. eigenvalues --    2.26587   2.26985   2.27236   2.27529   2.27599
 Alpha virt. eigenvalues --    2.27830   2.27908   2.28337   2.28408   2.28756
 Alpha virt. eigenvalues --    2.28907   2.29068   2.29092   2.29482   2.29590
 Alpha virt. eigenvalues --    2.29842   2.30245   2.30488   2.31120   2.31191
 Alpha virt. eigenvalues --    2.31403   2.31448   2.31651   2.32010   2.32268
 Alpha virt. eigenvalues --    2.32386   2.32572   2.32591   2.33454   2.33846
 Alpha virt. eigenvalues --    2.34138   2.34297   2.34934   2.35168   2.35493
 Alpha virt. eigenvalues --    2.36109   2.36331   2.36464   2.36769   2.37415
 Alpha virt. eigenvalues --    2.37552   2.37634   2.37788   2.38723   2.38888
 Alpha virt. eigenvalues --    2.39092   2.39465   2.39875   2.40521   2.40565
 Alpha virt. eigenvalues --    2.41833   2.42540   2.43388   2.43525   2.43764
 Alpha virt. eigenvalues --    2.44708   2.45618   2.46058   2.46795   2.47991
 Alpha virt. eigenvalues --    2.49150   2.49277   2.49814   2.50677   2.50868
 Alpha virt. eigenvalues --    2.51669   2.51958   2.53194   2.53400   2.53892
 Alpha virt. eigenvalues --    2.53954   2.54457   2.54645   2.55079   2.55515
 Alpha virt. eigenvalues --    2.55954   2.56431   2.56772   2.56951   2.57255
 Alpha virt. eigenvalues --    2.57561   2.57971   2.58304   2.58766   2.58898
 Alpha virt. eigenvalues --    2.59088   2.59307   2.59930   2.60144   2.60621
 Alpha virt. eigenvalues --    2.60807   2.61251   2.61815   2.62611   2.62856
 Alpha virt. eigenvalues --    2.63281   2.63634   2.63769   2.64038   2.64386
 Alpha virt. eigenvalues --    2.65575   2.65709   2.65905   2.65999   2.66216
 Alpha virt. eigenvalues --    2.66331   2.66580   2.66792   2.66977   2.67107
 Alpha virt. eigenvalues --    2.67482   2.67737   2.67797   2.68123   2.68483
 Alpha virt. eigenvalues --    2.68733   2.69130   2.69809   2.69921   2.70258
 Alpha virt. eigenvalues --    2.70509   2.70609   2.71019   2.71228   2.71378
 Alpha virt. eigenvalues --    2.71986   2.72401   2.73341   2.73533   2.73849
 Alpha virt. eigenvalues --    2.74000   2.74501   2.74937   2.75390   2.75756
 Alpha virt. eigenvalues --    2.76132   2.76211   2.76325   2.76783   2.77505
 Alpha virt. eigenvalues --    2.77973   2.78825   2.79389   2.79582   2.80466
 Alpha virt. eigenvalues --    2.81009   2.81558   2.82432   2.82758   2.82925
 Alpha virt. eigenvalues --    2.83102   2.83425   2.83940   2.84217   2.84831
 Alpha virt. eigenvalues --    2.85359   2.86107   2.86476   2.86653   2.86820
 Alpha virt. eigenvalues --    2.87676   2.88321   2.89031   2.89211   2.89576
 Alpha virt. eigenvalues --    2.89948   2.90591   2.91782   2.92314   2.93150
 Alpha virt. eigenvalues --    2.93637   2.95111   2.96719   2.97833   2.98464
 Alpha virt. eigenvalues --    2.98929   2.99528   2.99744   2.99972   3.00167
 Alpha virt. eigenvalues --    3.00588   3.00596   3.01275   3.01693   3.02262
 Alpha virt. eigenvalues --    3.02980   3.03120   3.03858   3.04849   3.06012
 Alpha virt. eigenvalues --    3.06689   3.08061   3.09750   3.10478   3.12480
 Alpha virt. eigenvalues --    3.13298   3.15457   3.17990   3.19428   3.22662
 Alpha virt. eigenvalues --    3.23834   3.26382   3.27564   3.27962   3.28550
 Alpha virt. eigenvalues --    3.29137   3.31376   3.32893   3.36868   3.38586
 Alpha virt. eigenvalues --    3.43166   3.43416   3.43523   3.44172   3.44483
 Alpha virt. eigenvalues --    3.45076   3.45238   3.45294   3.52277   3.53124
 Alpha virt. eigenvalues --    4.05422   4.05927   4.06151   4.06651   4.06759
 Alpha virt. eigenvalues --    4.06894   4.07399   4.07638   4.09290   4.09622
 Alpha virt. eigenvalues --    4.09814   4.09969   4.10438   4.10726   4.10906
 Alpha virt. eigenvalues --    4.11887   4.12163   4.13305   4.13562   4.14111
 Alpha virt. eigenvalues --    4.14713   4.15452   4.15989   4.16347   4.16773
 Alpha virt. eigenvalues --    4.17044   4.17537   4.17687   4.17995   4.18273
 Alpha virt. eigenvalues --    4.18543   4.18664   4.19246   4.21031   4.21052
 Alpha virt. eigenvalues --    4.21248   4.22000   4.22433   4.22787   4.23089
 Alpha virt. eigenvalues --    4.23367   4.24262   4.24607   4.24876   4.26473
 Alpha virt. eigenvalues --    4.26983   4.27499   4.27742   4.33156   4.33633
 Alpha virt. eigenvalues --    4.34112   4.34425   4.34602   4.35189   4.35663
 Alpha virt. eigenvalues --    4.36183   4.36866   4.37295   4.37850   4.38500
 Alpha virt. eigenvalues --    4.39624   4.40132   4.40456   4.41401   4.41749
 Alpha virt. eigenvalues --    4.41968   4.42773   4.43392   4.47044   4.50037
 Alpha virt. eigenvalues --    4.50564   4.51054   4.52206   4.53206   4.53902
 Alpha virt. eigenvalues --    4.55379   4.55903   4.56076   4.57327   4.59043
 Alpha virt. eigenvalues --    4.65318   4.76932   4.77227   4.77342   4.78374
 Alpha virt. eigenvalues --    4.79054   4.84337   4.85440   4.86943   4.88685
 Alpha virt. eigenvalues --    4.89323   4.90349   4.91766
          Condensed to atoms (all electrons):
 Mulliken atomic charges:
              1
     1  C   -0.270988
     2  C    0.112619
     3  C    0.073289
     4  C    0.075874
     5  C    0.123442
     6  C    0.127035
     7  C    0.071880
     8  C    0.078634
     9  C    0.119568
    10  C   -0.238984
    11  C    0.288051
    12  C   -0.170103
    13  C   -0.201713
    14  C   -0.205288
    15  C   -0.180263
    16  C    0.290790
    17  C   -0.240953
    18  C   -0.218192
    19  C    0.313444
    20  C   -0.184029
    21  C   -0.206494
    22  C   -0.204223
    23  C   -0.158839
    24  C    0.231756
    25  C   -0.218248
    26  N   -0.654495
    27  N   -0.651765
    28  N   -0.646753
    29  N   -0.662835
    30  C    0.275734
    31  C    0.293127
    32  C    0.310147
    33  C    0.206188
    34  C    0.340397
    35  C    0.195114
    36  C    0.332930
    37  C    0.203053
    38  C   -0.189305
    39  C   -0.142226
    40  C   -0.176442
    41  C    0.376214
    42  C   -0.255559
    43  C   -0.185515
    44  C   -0.147671
    45  C   -0.198317
    46  C    0.374845
    47  C   -0.233437
    48  C    0.372428
    49  C   -0.209722
    50  C   -0.132229
    51  C   -0.144608
    52  C   -0.170828
    53  C    0.372063
    54  C   -0.209027
    55  C   -0.132260
    56  C   -0.154156
    57  C   -0.177657
    58  C   -0.190846
    59  C   -0.161517
    60  C   -0.183013
    61  C    0.378138
    62  C   -0.244992
    63  C    0.364820
    64  C   -0.209205
    65  C   -0.134200
    66  C   -0.145163
    67  C   -0.171172
    68  C   -0.247176
    69  C    0.378016
    70  C   -0.173519
    71  C   -0.145359
    72  C   -0.168525
    73  C   -0.201931
    74  C   -0.157411
    75  C   -0.143250
    76  C   -0.172568
    77  C    0.326067
    78  H    0.151672
    79  H    0.146029
    80  H    0.138889
    81  H    0.127723
    82  H    0.128561
    83  H    0.142502
    84  H    0.130725
    85  H    0.132896
    86  H    0.129548
    87  H    0.139786
    88  H    0.149865
    89  H    0.154213
    90  H    0.132632
    91  H    0.125561
    92  H    0.123925
    93  H    0.131787
    94  O   -0.512443
    95  H    0.133752
    96  H    0.127743
    97  O   -0.519380
    98  H    0.132270
    99  O   -0.504372
   100  H    0.127118
   101  H    0.146862
   102  O   -0.512513
   103  H    0.127023
   104  H    0.158543
   105  H    0.142576
   106  H    0.156701
   107  H    0.149705
   108  H    0.126858
   109  H    0.133331
   110  O   -0.520915
   111  H    0.131021
   112  O   -0.505594
   113  H    0.124885
   114  H    0.140030
   115  H    0.155433
   116  H    0.150430
   117  H    0.129253
   118  H    0.129432
   119  H    0.134127
   120  O   -0.501451
   121  H    0.128186
   122  H    0.125945
   123  H    0.126523
   124  H    0.131232
   125  C   -0.208831
   126  C   -0.222533
   127  C   -0.215319
   128  C   -0.214968
   129  H    0.136780
   130  H    0.161525
   131  H    0.155894
   132  H    0.181628
   133  H    0.147561
   134  H    0.154441
   135  H    0.175090
   136  H    0.150863
   137  H    0.153227
   138  H    0.173003
   139  H    0.151305
   140  H    0.152499
   141  H    0.147780
   142  O   -0.513719
   143  C   -0.222956
   144  H    0.151211
   145  H    0.163521
   146  H    0.164682
   147  C   -0.215913
   148  H    0.172491
   149  H    0.150466
   150  H    0.153731
   151  H    0.159694
   152  H    0.137497
   153  C   -0.219333
   154  H    0.149357
   155  H    0.167197
   156  H    0.164769
   157  C   -0.212745
   158  H    0.139752
   159  H    0.165031
   160  H    0.153905
   161  H    0.150099
 Sum of Mulliken atomic charges =   0.00000
 Mulliken charges with hydrogens summed into heavy atoms:
              1
     1  C   -0.270988
     2  C    0.112619
     3  C    0.073289
     4  C    0.075874
     5  C    0.123442
     6  C    0.127035
     7  C    0.071880
     8  C    0.078634
     9  C    0.119568
    10  C   -0.084771
    11  C    0.288051
    12  C   -0.030316
    13  C   -0.072165
    14  C   -0.076727
    15  C   -0.037762
    16  C    0.290790
    17  C   -0.091088
    18  C   -0.072164
    19  C    0.313444
    20  C   -0.045140
    21  C   -0.078771
    22  C   -0.073497
    23  C   -0.025943
    24  C    0.231756
    25  C   -0.066576
    26  N   -0.654495
    27  N   -0.651765
    28  N   -0.646753
    29  N   -0.662835
    30  C    0.275734
    31  C    0.293127
    32  C    0.310147
    33  C    0.206188
    34  C    0.340397
    35  C    0.195114
    36  C    0.332930
    37  C    0.203053
    38  C   -0.057518
    39  C   -0.018301
    40  C   -0.048256
    41  C    0.376214
    42  C   -0.107779
    43  C   -0.052884
    44  C   -0.022111
    45  C   -0.072372
    46  C    0.374845
    47  C   -0.073744
    48  C    0.372428
    49  C   -0.075594
    50  C   -0.002796
    51  C   -0.015355
    52  C   -0.020398
    53  C    0.372063
    54  C   -0.078006
    55  C   -0.007375
    56  C   -0.014127
    57  C   -0.022225
    58  C   -0.048270
    59  C   -0.002973
    60  C   -0.055990
    61  C    0.378138
    62  C   -0.105240
    63  C    0.364820
    64  C   -0.076936
    65  C   -0.007677
    66  C   -0.018046
    67  C   -0.024310
    68  C   -0.109678
    69  C    0.378016
    70  C   -0.042287
    71  C   -0.017616
    72  C   -0.034773
    73  C   -0.045231
    74  C   -0.007706
    75  C   -0.016392
    76  C   -0.039237
    77  C    0.326067
    94  O   -0.512443
    97  O   -0.519380
    99  O   -0.504372
   102  O   -0.512513
   110  O   -0.520915
   112  O   -0.505594
   120  O   -0.501451
   125  C    0.245369
   126  C    0.261097
   127  C    0.263861
   128  C    0.261838
   142  O   -0.513719
   143  C    0.256458
   147  C    0.260776
   153  C    0.261989
   157  C    0.256290
 Sum of Mulliken charges with hydrogens summed into heavy atoms =   0.00000
 Electronic spatial extent (au):  <R**2>=          93810.4198
 Charge=              0.0000 electrons
 Dipole moment (field-independent basis, Debye):
    X=             -4.5926    Y=             -5.9780    Z=             -3.1524  Tot=              8.1711
 Quadrupole moment (field-independent basis, Debye-Ang):
   XX=           -494.8104   YY=           -506.1739   ZZ=           -494.5145
   XY=             13.4037   XZ=            -12.2671   YZ=              1.0908
 Traceless Quadrupole moment (field-independent basis, Debye-Ang):
   XX=              3.6892   YY=             -7.6743   ZZ=              3.9851
   XY=             13.4037   XZ=            -12.2671   YZ=              1.0908
 Octapole moment (field-independent basis, Debye-Ang**2):
  XXX=           -337.3273  YYY=           -465.3551  ZZZ=            -85.8694  XYY=           -108.3097
  XXY=           -105.3881  XXZ=           -143.7930  XZZ=            -41.2320  YZZ=            -31.0483
  YYZ=            -76.8746  XYZ=            -11.7462
 Hexadecapole moment (field-independent basis, Debye-Ang**3):
 XXXX=         -57415.1409 YYYY=         -49125.7100 ZZZZ=         -15104.4655 XXXY=           -144.6974
 XXXZ=           -626.6034 YYYX=            806.6754 YYYZ=            -48.8655 ZZZX=           -216.8977
 ZZZY=             -4.3227 XXYY=         -17770.1475 XXZZ=         -11942.6360 YYZZ=          -9812.1994
 XXYZ=            592.8675 YYXZ=            316.0256 ZZXY=            439.8684
 N-N= 1.715146888398D+04 E-N=-4.347636999291D+04  KE= 3.911045269676D+03
 Leave Link  601 at Sat Mar 28 17:41:37 2015, MaxMem= 1073741824 cpu:      66.7
 (Enter /opt/g09/l9999.exe)
 1\1\GINC-CHPC-SCANDIUM\SP\RB3LYP\6-31G(d)\C81H68N4O8\JARVIST\28-Mar-20
 15\0\\#p sp b3lyp/6-31g*\\B3lyp auto opt job - neutral state\\0,1\C,0,
 -0.094385,0.077291,0.009279\C,0,-0.965358,0.786443,1.051469\C,0,-0.551
 952,0.440338,2.356318\C,0,0.602265,-0.45589,2.266202\C,0,0.878063,-0.7
 02021,0.908739\C,0,-0.874855,-0.822297,-0.954533\C,0,-0.549938,-0.5198
 7,-2.290784\C,0,0.439161,0.561745,-2.300743\C,0,0.67354,0.969126,-0.97
 1461\C,0,-1.787968,-1.817198,-0.643873\C,0,-2.392537,-2.543434,-1.6867
 86\C,0,-2.066472,-2.241277,-3.022344\C,0,-1.155945,-1.232995,-3.327688
 \C,0,1.406323,-1.043489,3.246563\C,0,2.46552,-1.864466,2.865374\C,0,2.
 746643,-2.101315,1.505578\C,0,1.934279,-1.509331,0.520375\C,0,-2.06352
 6,1.604196,0.842285\C,0,-2.776302,2.093407,1.953352\C,0,-2.357363,1.75
 792,3.250887\C,0,-1.253101,0.932276,3.45742\C,0,1.15393,1.149322,-3.34
 73\C,0,2.110426,2.12241,-3.054279\C,0,2.338108,2.530354,-1.732311\C,0,
 1.595839,1.963322,-0.683506\N,0,-3.345104,-3.559764,-1.407742\N,0,3.82
 5779,-2.936084,1.118635\N,0,-3.936011,2.894069,1.759912\N,0,3.375965,3
 .483602,-1.44986\C,0,4.709323,2.995231,-1.380028\C,0,-3.882951,4.04751
 2,0.934487\C,0,2.992352,4.692769,-0.80285\C,0,-5.065721,2.6839,2.59832
 \C,0,-3.171663,-4.452499,-0.322016\C,0,-4.550886,-3.587335,-2.165212\C
 ,0,5.063756,-2.905968,1.809546\C,0,3.609428,-3.894477,0.087334\C,0,5.7
 89758,-4.083692,2.022755\C,0,7.019288,-4.024442,2.683027\C,0,7.531482,
 -2.82065,3.150545\C,0,6.800871,-1.640469,2.939544\C,0,5.57858,-1.67793
 ,2.26624\C,0,-4.283192,-4.90168,0.415562\C,0,-4.095997,-5.788757,1.469
 058\C,0,-2.823811,-6.240387,1.831405\C,0,-1.722112,-5.788168,1.095286\
 C,0,-1.89446,-4.908406,0.022291\C,0,-4.95055,-4.767097,-2.840962\C,0,-
 6.141087,-4.774221,-3.575533\C,0,-6.918275,-3.616341,-3.670999\C,0,-6.
 519992,-2.446036,-3.029833\C,0,-5.345985,-2.442888,-2.275129\C,0,4.463
 233,-3.943743,-1.042318\C,0,4.237518,-4.90099,-2.037261\C,0,3.153787,-
 5.778842,-1.940771\C,0,2.290614,-5.714508,-0.849786\C,0,2.531292,-4.78
 1298,0.159638\C,0,-2.712937,4.81054,0.833245\C,0,-2.700664,5.950304,0.
 025273\C,0,-3.833433,6.346453,-0.676693\C,0,-5.004875,5.580159,-0.5767
 53\C,0,-5.031365,4.432472,0.216797\C,0,-5.682253,1.407972,2.660356\C,0
 ,-6.784469,1.211076,3.498353\C,0,-7.299529,2.270179,4.251445\C,0,-6.71
 2338,3.530878,4.181739\C,0,-5.59623,3.725303,3.366702\C,0,1.889391,5.3
 95887,-1.320537\C,0,1.472057,6.58281,-0.71764\C,0,2.144776,7.080023,0.
 407609\C,0,3.236906,6.378619,0.90604\C,0,3.667735,5.187866,0.317091\C,
 0,4.976641,1.670029,-0.996239\C,0,6.2798,1.17642,-0.939498\C,0,7.35727
 4,2.007484,-1.248787\C,0,7.111025,3.323362,-1.641279\C,0,5.80866,3.816
 667,-1.728398\H,0,1.787741,2.275927,0.33908\H,0,-2.401353,1.849596,-0.
 159849\H,0,-2.910947,2.147236,4.099579\H,0,-0.94787,0.681148,4.470147\
 H,0,1.208998,-0.876177,4.302564\H,0,3.088375,-2.332052,3.620858\H,0,0.
 988559,0.841976,-4.37671\H,0,2.701344,2.56927,-3.848456\H,0,-0.916914,
 -1.019285,-4.36641\H,0,-2.534953,-2.810757,-3.818488\H,0,2.149668,-1.6
 84441,-0.529172\H,0,-2.040141,-2.038226,0.388285\H,0,-5.278171,-4.5553
 34,0.15757\H,0,-4.958511,-6.131061,2.035475\H,0,7.579005,-4.941932,2.8
 46824\H,0,5.394146,-5.032354,1.676595\O,0,-0.426725,-6.167933,1.335563
 \H,0,4.520674,4.651186,0.717122\H,0,3.763413,6.761029,1.776602\O,0,0.4
 18885,7.336773,-1.166336\H,0,-7.258547,0.23774,3.552571\O,0,-5.140433,
 0.440646,1.868817\H,0,-7.104983,4.356859,4.767621\H,0,-5.118414,4.6987
 57,3.312294\O,0,-6.070321,6.031648,-1.306384\H,0,-3.841992,7.237353,-1
 .296289\H,0,-1.7944,6.546691,-0.036519\H,0,-1.828411,4.524198,1.390971
 \H,0,4.148612,1.019692,-0.736468\H,0,6.440554,0.145021,-0.636131\H,0,8
 .37705,1.636754,-1.195316\H,0,7.922059,3.997648,-1.900641\O,0,5.645061
 ,5.132857,-2.100726\H,0,4.888916,-4.952543,-2.902263\O,0,5.465986,-3.0
 20937,-1.079771\H,0,2.989015,-6.506187,-2.731244\H,0,1.439958,-6.38318
 7,-0.76398\H,0,1.864726,-4.727247,1.014663\H,0,-5.023146,-1.541258,-1.
 762686\H,0,-7.120013,-1.543837,-3.103076\H,0,-7.834187,-3.638599,-4.25
 5164\H,0,-6.457625,-5.672989,-4.092436\O,0,-4.113733,-5.834071,-2.7244
 79\H,0,8.480338,-2.764174,3.673729\H,0,-2.707853,-6.923563,2.664106\H,
 0,-8.162892,2.099169,4.888627\H,0,1.804536,8.006591,0.858164\C,0,5.122
 009,5.337529,-3.41237\C,0,-5.647879,-0.880684,1.968952\C,0,-4.478009,-
 7.054119,-3.348628\C,0,6.375366,-3.055977,-2.167384\H,0,5.771336,4.876
 113,-4.168904\H,0,5.098584,6.419025,-3.564275\H,0,4.106854,4.936714,-3
 .509585\H,0,-5.039867,-1.487406,1.295774\H,0,-6.699487,-0.935257,1.656
 453\H,0,-5.554817,-1.270613,2.990784\H,0,-3.67812,-7.757741,-3.112106\
 H,0,-4.554172,-6.943624,-4.438612\H,0,-5.428533,-7.439944,-2.957473\H,
 0,7.08397,-2.245498,-1.988933\H,0,5.866438,-2.886382,-3.125521\H,0,6.9
 16847,-4.010071,-2.209191\H,0,5.019462,-0.771436,2.07366\O,0,7.376753,
 -0.496979,3.416732\C,0,6.693751,0.73309,3.225277\H,0,5.707469,0.726471
 ,3.708002\H,0,6.571834,0.967835,2.159922\H,0,7.318541,1.496505,3.69314
 8\C,0,-0.17837,-7.074555,2.398674\H,0,0.900436,-7.239945,2.403939\H,0,
 -0.692485,-8.031882,2.241012\H,0,-0.485889,-6.655692,3.365733\H,0,-1.0
 20765,-4.595096,-0.537629\H,0,1.377772,4.998964,-2.188238\C,0,-0.17493
 3,6.984194,-2.407737\H,0,0.570633,6.965362,-3.213496\H,0,-0.914495,7.7
 59855,-2.616087\H,0,-0.680918,6.012209,-2.355845\C,0,-7.287139,5.30815
 2,-1.236087\H,0,-5.922626,3.822869,0.29531\H,0,-7.99259,5.845502,-1.87
 3164\H,0,-7.67898,5.271885,-0.210826\H,0,-7.170774,4.282097,-1.610523\
 \Version=EM64L-G09RevA.02\State=1-A\HF=-3948.2863483\RMSD=3.611e-09\Di
 pole=-1.8068513,-2.3519459,-1.2402511\Quadrupole=2.7428371,-5.7056413,
 2.9628042,9.9653171,-9.1202615,0.8109834\PG=C01 [X(C81H68N4O8)]\\@


 THE SECRET OF SUCCESS IN LIFE IS TO EAT WHAT YOU LIKE, AND LET THE FOOD
 FIGHT IT OUT INSIDE YOU. -- FROM A FORTUNE COOKIE
 Job cpu time:  0 days  5 hours 53 minutes 44.6 seconds.
 File lengths (MBytes):  RWF=   1254 Int=      0 D2E=      0 Chk=     82 Scr=      1
 Normal termination of Gaussian 09 at Sat Mar 28 17:41:38 2015.
