 Entering Gaussian System, Link 0=g09
 Input=sp_10_B3LYP_cc-pVDZ.com
 Output=sp_10_B3LYP_cc-pVDZ.log
 Initial command:
 /opt/g09/l1.exe /home/jarvist/2014-07_SPIRO/b3lyp-631gs_opt/delta_scf/cation/Gau-14143.inp -scrdir=/home/jarvist/2014-07_SPIRO/b3lyp-631gs_opt/delta_scf/cation/
 Default is to use a total of   8 processors:
                                8 via shared-memory
                                1 via Linda
 Entering Link 1 = /opt/g09/l1.exe PID=     14145.
  
 Copyright (c) 1988,1990,1992,1993,1995,1998,2003,2009, Gaussian, Inc.
                  All Rights Reserved.
  
 This is part of the Gaussian(R) 09 program.  It is based on
 the Gaussian(R) 03 system (copyright 2003, Gaussian, Inc.),
 the Gaussian(R) 98 system (copyright 1998, Gaussian, Inc.),
 the Gaussian(R) 94 system (copyright 1995, Gaussian, Inc.),
 the Gaussian 92(TM) system (copyright 1992, Gaussian, Inc.),
 the Gaussian 90(TM) system (copyright 1990, Gaussian, Inc.),
 the Gaussian 88(TM) system (copyright 1988, Gaussian, Inc.),
 the Gaussian 86(TM) system (copyright 1986, Carnegie Mellon
 University), and the Gaussian 82(TM) system (copyright 1983,
 Carnegie Mellon University). Gaussian is a federally registered
 trademark of Gaussian, Inc.
  
 This software contains proprietary and confidential information,
 including trade secrets, belonging to Gaussian, Inc.
  
 This software is provided under written license and may be
 used, copied, transmitted, or stored only in accord with that
 written license.
  
 The following legend is applicable only to US Government
 contracts under FAR:
  
                    RESTRICTED RIGHTS LEGEND
  
 Use, reproduction and disclosure by the US Government is
 subject to restrictions as set forth in subparagraphs (a)
 and (c) of the Commercial Computer Software - Restricted
 Rights clause in FAR 52.227-19.
  
 Gaussian, Inc.
 340 Quinnipiac St., Bldg. 40, Wallingford CT 06492
  
  
 ---------------------------------------------------------------
 Warning -- This program may not be used in any manner that
 competes with the business of Gaussian, Inc. or will provide
 assistance to any competitor of Gaussian, Inc.  The licensee
 of this program is prohibited from giving any competitor of
 Gaussian, Inc. access to this program.  By using this program,
 the user acknowledges that Gaussian, Inc. is engaged in the
 business of creating and licensing software in the field of
 computational chemistry and represents and warrants to the
 licensee that it is not a competitor of Gaussian, Inc. and that
 it will not use this program in any manner prohibited above.
 ---------------------------------------------------------------
  

 Cite this work as:
 Gaussian 09, Revision A.02,
 M. J. Frisch, G. W. Trucks, H. B. Schlegel, G. E. Scuseria, 
 M. A. Robb, J. R. Cheeseman, G. Scalmani, V. Barone, B. Mennucci, 
 G. A. Petersson, H. Nakatsuji, M. Caricato, X. Li, H. P. Hratchian, 
 A. F. Izmaylov, J. Bloino, G. Zheng, J. L. Sonnenberg, M. Hada, 
 M. Ehara, K. Toyota, R. Fukuda, J. Hasegawa, M. Ishida, T. Nakajima, 
 Y. Honda, O. Kitao, H. Nakai, T. Vreven, J. A. Montgomery, Jr., 
 J. E. Peralta, F. Ogliaro, M. Bearpark, J. J. Heyd, E. Brothers, 
 K. N. Kudin, V. N. Staroverov, R. Kobayashi, J. Normand, 
 K. Raghavachari, A. Rendell, J. C. Burant, S. S. Iyengar, J. Tomasi, 
 M. Cossi, N. Rega, J. M. Millam, M. Klene, J. E. Knox, J. B. Cross, 
 V. Bakken, C. Adamo, J. Jaramillo, R. Gomperts, R. E. Stratmann, 
 O. Yazyev, A. J. Austin, R. Cammi, C. Pomelli, J. W. Ochterski, 
 R. L. Martin, K. Morokuma, V. G. Zakrzewski, G. A. Voth, 
 P. Salvador, J. J. Dannenberg, S. Dapprich, A. D. Daniels, 
 O. Farkas, J. B. Foresman, J. V. Ortiz, J. Cioslowski, 
 and D. J. Fox, Gaussian, Inc., Wallingford CT, 2009.
 
 ******************************************
 Gaussian 09:  EM64L-G09RevA.02 11-Jun-2009
                27-Jan-2015 
 ******************************************
 %mem=16GB
 %nprocs=24
 Will use up to   24 processors via shared memory.
 Default route:  MaxDisk=100GB
 -------------------
 #p sp B3LYP/cc-pVDZ
 -------------------
 1/38=1/1;
 2/12=2,17=6,18=5,40=1/2;
 3/5=16,11=2,16=1,25=1,30=1,74=-5/1,2,3;
 4//1;
 5/5=2,38=5/2;
 6/7=2,8=2,9=2,10=2,28=1/1;
 99/5=1,9=1/99;
 Leave Link    1 at Tue Jan 27 12:34:33 2015, MaxMem= 2147483648 cpu:       2.2
 (Enter /opt/g09/l101.exe)
 ------------------------------------------
 Auto Spiro; and yes I said yes I will Yes.
 ------------------------------------------
 Symbolic Z-matrix:
 Charge =  1 Multiplicity = 2
 C                     0.01867  -0.04083   0.12709 
 C                     0.56793  -1.09579   1.09502 
 C                     0.38175  -0.68647   2.43024 
 C                    -0.28306   0.61786   2.43595 
 C                    -0.50554   1.01929   1.10384 
 C                     1.05761   0.50666  -0.85943 
 C                     0.63193   0.3052   -2.18679 
 C                    -0.67147  -0.36081  -2.16914 
 C                    -1.05     -0.58301  -0.83073 
 C                     2.2673    1.11833  -0.57156 
 C                     3.08367   1.56472  -1.62986 
 C                     2.65692   1.36083  -2.95791 
 C                     1.44687   0.73112  -3.23822 
 C                    -0.69211   1.45174   3.47895 
 C                    -1.30588   2.6691    3.1885 
 C                    -1.53655   3.06639   1.85772 
 C                    -1.12605   2.22134   0.80717 
 C                     1.17752  -2.30044   0.78723 
 C                     1.60982  -3.14393   1.83077 
 C                     1.41826  -2.73577   3.16617 
 C                     0.8177   -1.51516   3.4664 
 C                    -1.5219   -0.77042  -3.19921 
 C                    -2.72314  -1.40176  -2.88754 
 C                    -3.10433  -1.62334  -1.54934 
 C                    -2.25013  -1.19889  -0.51189 
 N                     4.32189   2.20905  -1.37921 
 N                    -2.1656    4.30512   1.55907 
 N                     2.20805  -4.39088   1.52857 
 N                    -4.34131  -2.25344  -1.26513 
 C                    -5.48811  -1.90568  -2.03395 
 C                     1.68357  -5.16981   0.45767 
 C                    -4.49107  -3.12426  -0.15292 
 C                     3.20573  -4.95555   2.36925 
 C                     4.52002   2.98678  -0.2021 
 C                     5.44241   1.91286  -2.20791 
 C                    -3.14671   4.8523    2.43377 
 C                    -1.61815   5.12373   0.52944 
 C                    -3.13973   6.20747   2.77759 
 C                    -4.12301   6.74844   3.60996 
 C                    -5.12518   5.9269    4.13353 
 C                    -5.13398   4.56408   3.80246 
 C                    -4.1676    4.03778   2.95785 
 C                     5.69553   2.8776    0.54605 
 C                     5.91035   3.66949   1.67696 
 C                     4.93008   4.57522   2.09168 
 C                     3.74167   4.68121   1.3543 
 C                     3.54358   3.90756   0.21989 
 C                     6.22492   2.93456  -2.77962 
 C                     7.35589   2.62722  -3.5449 
 C                     7.70759   1.29581  -3.78068 
 C                     6.9194    0.26838  -3.24179 
 C                     5.81649   0.58176  -2.46104 
 C                    -2.43314   5.70466  -0.46078 
 C                    -1.88635   6.54953  -1.43364 
 C                    -0.51315   6.80513  -1.45545 
 C                     0.31455   6.21055  -0.49162 
 C                    -0.23969   5.39552   0.48493 
 C                     0.32952  -5.49423   0.40122 
 C                    -0.21725  -6.23907  -0.64804 
 C                     0.62932  -6.69484  -1.66089 
 C                     1.99954  -6.39278  -1.62535 
 C                     2.5267   -5.62515  -0.58917 
 C                     4.24592  -4.1699    2.88013 
 C                     5.23009  -4.71986   3.70267 
 C                     5.20461  -6.08556   4.00775 
 C                     4.17672  -6.88215   3.48753 
 C                     3.18689  -6.32342   2.68903 
 C                    -3.48545  -4.05209   0.1774 
 C                    -3.64213  -4.91429   1.25239 
 C                    -4.81664  -4.89586   2.01971 
 C                    -5.82691  -3.98773   1.69391 
 C                    -5.65415  -3.10551   0.62318 
 C                    -5.91536  -0.58285  -2.12835 
 C                    -7.02666  -0.20856  -2.88987 
 C                    -7.74755  -1.19954  -3.55864 
 C                    -7.34535  -2.54214  -3.47725 
 C                    -6.21978  -2.89794  -2.73785 
 H                    -2.53736  -1.35347   0.52328 
 H                     1.32408  -2.60274  -0.24476 
 H                     1.73846  -3.39046   3.96962 
 H                     0.67647  -1.22876   4.50576 
 H                    -0.5221    1.17126   4.51548 
 H                    -1.60929   3.32595   3.99676 
 H                    -1.25003  -0.61636  -4.24067 
 H                    -3.38129  -1.73694  -3.68265 
 H                     1.14276   0.58889  -4.27236 
 H                     3.28862   1.70026  -3.77244 
 H                    -1.29459   2.51965  -0.22313 
 H                     2.58882   1.25378   0.45577 
 O                    -4.87248  -5.79904   3.04807 
 C                    -6.02692  -5.79906   3.86801 
 O                     6.12402  -6.7304    4.79318 
 C                     7.18534  -5.96666   5.33646 
 O                    -6.12988   6.34611   4.96451 
 O                     5.02908   5.39425   3.18398 
 C                     6.20994   5.32376   3.96283 
 C                    -6.1614    7.71397   5.33021 
 H                    -5.92029   3.93574   4.20963 
 H                    -4.19383   2.98283   2.70314 
 H                     6.46067   2.1721    0.23847 
 H                    -4.08519   7.80579   3.84665 
 H                    -2.36185   6.85455   2.3854 
 H                     2.99027   5.39283   1.68357 
 H                     2.6216    4.00884  -0.34414 
 H                    -6.4413   -2.39614   0.38794 
 H                    -6.74556  -3.94213   2.26822 
 H                    -2.86697  -5.62928   1.51253 
 H                    -2.57708  -4.09171  -0.41513 
 H                     6.0167   -4.07685   4.08148 
 H                     4.28787  -3.11441   2.63106 
 H                     4.16337  -7.9396    3.73373 
 H                     2.38913  -6.95051   2.30364 
 H                     6.8164   -5.16833   5.99525 
 H                     7.80908  -5.51965   4.55004 
 H                     7.78978  -6.6634    5.92098 
 H                     7.10006   5.58679   3.37488 
 H                     6.35093   4.32429   4.39682 
 H                     6.08343   6.05021   4.7681 
 H                    -7.02799   7.83117   5.98411 
 H                    -6.27917   8.36604   4.4538 
 H                    -5.25476   8.00961   5.87589 
 H                    -6.9336   -6.03479   3.29352 
 H                    -6.16588  -4.83325   4.37292 
 H                    -5.86468  -6.57634   4.61753 
 H                     2.61727  -6.75524  -2.43755 
 O                     3.83478  -5.26334  -0.50113 
 H                    -1.27768  -6.4606   -0.65077 
 H                    -0.31643  -5.13947   1.19898 
 H                    -5.3521    0.17565  -1.59283 
 H                    -7.3171    0.83393  -2.93678 
 H                    -7.92574  -3.27603  -4.0224 
 O                    -5.74772  -4.17012  -2.63829 
 H                    -2.56734   6.97812  -2.15879 
 O                    -3.79737   5.5324   -0.48156 
 H                     1.37951   6.41864  -0.51309 
 H                     0.39857   4.94988   1.24218 
 H                     5.21994  -0.21401  -2.02519 
 H                     7.20218  -0.76251  -3.4286 
 H                     7.92618   3.45725  -3.94385 
 O                     5.96355   4.2665   -2.56063 
 O                     0.23017  -7.44014  -2.73423 
 C                    -1.14707  -7.76069  -2.84621 
 O                     8.78556   0.89892  -4.52051 
 C                     9.61643   1.9019   -5.08081 
 O                     0.11117   7.60636  -2.36916 
 C                    -0.68528   8.23779  -3.35782 
 O                    -8.85788  -0.97581  -4.3235 
 C                    -9.32181   0.35835  -4.45008 
 H                    -1.2458   -8.33789  -3.76768 
 H                    -1.76733  -6.8573   -2.91427 
 H                    -1.49077  -8.36925  -1.99916 
 H                    -10.20199   0.30985  -5.09403 
 H                    -8.56703   1.00613  -4.91551 
 H                    -9.60697   0.78098  -3.47747 
 H                     0.00286   8.82903  -3.96506 
 H                    -1.43558   8.90212  -2.90862 
 H                    -1.19374   7.50373  -3.99723 
 H                     10.40905   1.37238  -5.61296 
 H                     10.06238   2.53766  -4.30432 
 H                     9.06497   2.53493  -5.78894 
 C                    -6.46397  -5.20875  -3.28579 
 C                    -4.24861   4.22153  -0.82696 
 H                     6.83882   3.55975   2.22589 
 C                     4.78804   4.77748  -3.19202 
 C                     4.73446  -5.73009  -1.49326 
 H                     5.71449  -5.34201  -1.21039 
 H                     4.46731  -5.3542   -2.48975 
 H                     4.77077  -6.82691  -1.51921 
 H                    -5.9239   -6.12914  -3.05682 
 H                    -6.49085  -5.06298  -4.37388 
 H                    -7.49137  -5.28647  -2.90716 
 H                    -5.33994   4.26351  -0.80538 
 H                    -3.8991    3.46966  -0.11225 
 H                    -3.91253   3.94836  -1.83647 
 H                     4.86629   4.69248  -4.28462 
 H                     4.72891   5.8316   -2.91287 
 H                     3.88506   4.26076  -2.85156 
 
 NAtoms=    177 NQM=    177 NQMF=      0 NMic=      0 NMicF=      0 NTot=    177.
                    Isotopes and Nuclear Properties:
 (Nuclear quadrupole moments (NQMom) in fm**2, nuclear magnetic moments (NMagM)
  in nuclear magnetons)

  Atom         1           2           3           4           5           6           7           8           9          10
 IAtWgt=          12          12          12          12          12          12          12          12          12          12
 AtmWgt=  12.0000000  12.0000000  12.0000000  12.0000000  12.0000000  12.0000000  12.0000000  12.0000000  12.0000000  12.0000000
 NucSpn=           0           0           0           0           0           0           0           0           0           0
 AtZEff=   0.0000000   0.0000000   0.0000000   0.0000000   0.0000000   0.0000000   0.0000000   0.0000000   0.0000000   0.0000000
 NQMom=    0.0000000   0.0000000   0.0000000   0.0000000   0.0000000   0.0000000   0.0000000   0.0000000   0.0000000   0.0000000
 NMagM=    0.0000000   0.0000000   0.0000000   0.0000000   0.0000000   0.0000000   0.0000000   0.0000000   0.0000000   0.0000000

  Atom        11          12          13          14          15          16          17          18          19          20
 IAtWgt=          12          12          12          12          12          12          12          12          12          12
 AtmWgt=  12.0000000  12.0000000  12.0000000  12.0000000  12.0000000  12.0000000  12.0000000  12.0000000  12.0000000  12.0000000
 NucSpn=           0           0           0           0           0           0           0           0           0           0
 AtZEff=   0.0000000   0.0000000   0.0000000   0.0000000   0.0000000   0.0000000   0.0000000   0.0000000   0.0000000   0.0000000
 NQMom=    0.0000000   0.0000000   0.0000000   0.0000000   0.0000000   0.0000000   0.0000000   0.0000000   0.0000000   0.0000000
 NMagM=    0.0000000   0.0000000   0.0000000   0.0000000   0.0000000   0.0000000   0.0000000   0.0000000   0.0000000   0.0000000

  Atom        21          22          23          24          25          26          27          28          29          30
 IAtWgt=          12          12          12          12          12          14          14          14          14          12
 AtmWgt=  12.0000000  12.0000000  12.0000000  12.0000000  12.0000000  14.0030740  14.0030740  14.0030740  14.0030740  12.0000000
 NucSpn=           0           0           0           0           0           2           2           2           2           0
 AtZEff=   0.0000000   0.0000000   0.0000000   0.0000000   0.0000000   0.0000000   0.0000000   0.0000000   0.0000000   0.0000000
 NQMom=    0.0000000   0.0000000   0.0000000   0.0000000   0.0000000   2.0440000   2.0440000   2.0440000   2.0440000   0.0000000
 NMagM=    0.0000000   0.0000000   0.0000000   0.0000000   0.0000000   0.4037610   0.4037610   0.4037610   0.4037610   0.0000000

  Atom        31          32          33          34          35          36          37          38          39          40
 IAtWgt=          12          12          12          12          12          12          12          12          12          12
 AtmWgt=  12.0000000  12.0000000  12.0000000  12.0000000  12.0000000  12.0000000  12.0000000  12.0000000  12.0000000  12.0000000
 NucSpn=           0           0           0           0           0           0           0           0           0           0
 AtZEff=   0.0000000   0.0000000   0.0000000   0.0000000   0.0000000   0.0000000   0.0000000   0.0000000   0.0000000   0.0000000
 NQMom=    0.0000000   0.0000000   0.0000000   0.0000000   0.0000000   0.0000000   0.0000000   0.0000000   0.0000000   0.0000000
 NMagM=    0.0000000   0.0000000   0.0000000   0.0000000   0.0000000   0.0000000   0.0000000   0.0000000   0.0000000   0.0000000

  Atom        41          42          43          44          45          46          47          48          49          50
 IAtWgt=          12          12          12          12          12          12          12          12          12          12
 AtmWgt=  12.0000000  12.0000000  12.0000000  12.0000000  12.0000000  12.0000000  12.0000000  12.0000000  12.0000000  12.0000000
 NucSpn=           0           0           0           0           0           0           0           0           0           0
 AtZEff=   0.0000000   0.0000000   0.0000000   0.0000000   0.0000000   0.0000000   0.0000000   0.0000000   0.0000000   0.0000000
 NQMom=    0.0000000   0.0000000   0.0000000   0.0000000   0.0000000   0.0000000   0.0000000   0.0000000   0.0000000   0.0000000
 NMagM=    0.0000000   0.0000000   0.0000000   0.0000000   0.0000000   0.0000000   0.0000000   0.0000000   0.0000000   0.0000000

  Atom        51          52          53          54          55          56          57          58          59          60
 IAtWgt=          12          12          12          12          12          12          12          12          12          12
 AtmWgt=  12.0000000  12.0000000  12.0000000  12.0000000  12.0000000  12.0000000  12.0000000  12.0000000  12.0000000  12.0000000
 NucSpn=           0           0           0           0           0           0           0           0           0           0
 AtZEff=   0.0000000   0.0000000   0.0000000   0.0000000   0.0000000   0.0000000   0.0000000   0.0000000   0.0000000   0.0000000
 NQMom=    0.0000000   0.0000000   0.0000000   0.0000000   0.0000000   0.0000000   0.0000000   0.0000000   0.0000000   0.0000000
 NMagM=    0.0000000   0.0000000   0.0000000   0.0000000   0.0000000   0.0000000   0.0000000   0.0000000   0.0000000   0.0000000

  Atom        61          62          63          64          65          66          67          68          69          70
 IAtWgt=          12          12          12          12          12          12          12          12          12          12
 AtmWgt=  12.0000000  12.0000000  12.0000000  12.0000000  12.0000000  12.0000000  12.0000000  12.0000000  12.0000000  12.0000000
 NucSpn=           0           0           0           0           0           0           0           0           0           0
 AtZEff=   0.0000000   0.0000000   0.0000000   0.0000000   0.0000000   0.0000000   0.0000000   0.0000000   0.0000000   0.0000000
 NQMom=    0.0000000   0.0000000   0.0000000   0.0000000   0.0000000   0.0000000   0.0000000   0.0000000   0.0000000   0.0000000
 NMagM=    0.0000000   0.0000000   0.0000000   0.0000000   0.0000000   0.0000000   0.0000000   0.0000000   0.0000000   0.0000000

  Atom        71          72          73          74          75          76          77          78          79          80
 IAtWgt=          12          12          12          12          12          12          12           1           1           1
 AtmWgt=  12.0000000  12.0000000  12.0000000  12.0000000  12.0000000  12.0000000  12.0000000   1.0078250   1.0078250   1.0078250
 NucSpn=           0           0           0           0           0           0           0           1           1           1
 AtZEff=   0.0000000   0.0000000   0.0000000   0.0000000   0.0000000   0.0000000   0.0000000   0.0000000   0.0000000   0.0000000
 NQMom=    0.0000000   0.0000000   0.0000000   0.0000000   0.0000000   0.0000000   0.0000000   0.0000000   0.0000000   0.0000000
 NMagM=    0.0000000   0.0000000   0.0000000   0.0000000   0.0000000   0.0000000   0.0000000   2.7928460   2.7928460   2.7928460

  Atom        81          82          83          84          85          86          87          88          89          90
 IAtWgt=           1           1           1           1           1           1           1           1           1          16
 AtmWgt=   1.0078250   1.0078250   1.0078250   1.0078250   1.0078250   1.0078250   1.0078250   1.0078250   1.0078250  15.9949146
 NucSpn=           1           1           1           1           1           1           1           1           1           0
 AtZEff=   0.0000000   0.0000000   0.0000000   0.0000000   0.0000000   0.0000000   0.0000000   0.0000000   0.0000000   0.0000000
 NQMom=    0.0000000   0.0000000   0.0000000   0.0000000   0.0000000   0.0000000   0.0000000   0.0000000   0.0000000   0.0000000
 NMagM=    2.7928460   2.7928460   2.7928460   2.7928460   2.7928460   2.7928460   2.7928460   2.7928460   2.7928460   0.0000000

  Atom        91          92          93          94          95          96          97          98          99         100
 IAtWgt=          12          16          12          16          16          12          12           1           1           1
 AtmWgt=  12.0000000  15.9949146  12.0000000  15.9949146  15.9949146  12.0000000  12.0000000   1.0078250   1.0078250   1.0078250
 NucSpn=           0           0           0           0           0           0           0           1           1           1
 AtZEff=   0.0000000   0.0000000   0.0000000   0.0000000   0.0000000   0.0000000   0.0000000   0.0000000   0.0000000   0.0000000
 NQMom=    0.0000000   0.0000000   0.0000000   0.0000000   0.0000000   0.0000000   0.0000000   0.0000000   0.0000000   0.0000000
 NMagM=    0.0000000   0.0000000   0.0000000   0.0000000   0.0000000   0.0000000   0.0000000   2.7928460   2.7928460   2.7928460

  Atom       101         102         103         104         105         106         107         108         109         110
 IAtWgt=           1           1           1           1           1           1           1           1           1           1
 AtmWgt=   1.0078250   1.0078250   1.0078250   1.0078250   1.0078250   1.0078250   1.0078250   1.0078250   1.0078250   1.0078250
 NucSpn=           1           1           1           1           1           1           1           1           1           1
 AtZEff=   0.0000000   0.0000000   0.0000000   0.0000000   0.0000000   0.0000000   0.0000000   0.0000000   0.0000000   0.0000000
 NQMom=    0.0000000   0.0000000   0.0000000   0.0000000   0.0000000   0.0000000   0.0000000   0.0000000   0.0000000   0.0000000
 NMagM=    2.7928460   2.7928460   2.7928460   2.7928460   2.7928460   2.7928460   2.7928460   2.7928460   2.7928460   2.7928460

  Atom       111         112         113         114         115         116         117         118         119         120
 IAtWgt=           1           1           1           1           1           1           1           1           1           1
 AtmWgt=   1.0078250   1.0078250   1.0078250   1.0078250   1.0078250   1.0078250   1.0078250   1.0078250   1.0078250   1.0078250
 NucSpn=           1           1           1           1           1           1           1           1           1           1
 AtZEff=   0.0000000   0.0000000   0.0000000   0.0000000   0.0000000   0.0000000   0.0000000   0.0000000   0.0000000   0.0000000
 NQMom=    0.0000000   0.0000000   0.0000000   0.0000000   0.0000000   0.0000000   0.0000000   0.0000000   0.0000000   0.0000000
 NMagM=    2.7928460   2.7928460   2.7928460   2.7928460   2.7928460   2.7928460   2.7928460   2.7928460   2.7928460   2.7928460

  Atom       121         122         123         124         125         126         127         128         129         130
 IAtWgt=           1           1           1           1           1          16           1           1           1           1
 AtmWgt=   1.0078250   1.0078250   1.0078250   1.0078250   1.0078250  15.9949146   1.0078250   1.0078250   1.0078250   1.0078250
 NucSpn=           1           1           1           1           1           0           1           1           1           1
 AtZEff=   0.0000000   0.0000000   0.0000000   0.0000000   0.0000000   0.0000000   0.0000000   0.0000000   0.0000000   0.0000000
 NQMom=    0.0000000   0.0000000   0.0000000   0.0000000   0.0000000   0.0000000   0.0000000   0.0000000   0.0000000   0.0000000
 NMagM=    2.7928460   2.7928460   2.7928460   2.7928460   2.7928460   0.0000000   2.7928460   2.7928460   2.7928460   2.7928460

  Atom       131         132         133         134         135         136         137         138         139         140
 IAtWgt=           1          16           1          16           1           1           1           1           1          16
 AtmWgt=   1.0078250  15.9949146   1.0078250  15.9949146   1.0078250   1.0078250   1.0078250   1.0078250   1.0078250  15.9949146
 NucSpn=           1           0           1           0           1           1           1           1           1           0
 AtZEff=   0.0000000   0.0000000   0.0000000   0.0000000   0.0000000   0.0000000   0.0000000   0.0000000   0.0000000   0.0000000
 NQMom=    0.0000000   0.0000000   0.0000000   0.0000000   0.0000000   0.0000000   0.0000000   0.0000000   0.0000000   0.0000000
 NMagM=    2.7928460   0.0000000   2.7928460   0.0000000   2.7928460   2.7928460   2.7928460   2.7928460   2.7928460   0.0000000

  Atom       141         142         143         144         145         146         147         148         149         150
 IAtWgt=          16          12          16          12          16          12          16          12           1           1
 AtmWgt=  15.9949146  12.0000000  15.9949146  12.0000000  15.9949146  12.0000000  15.9949146  12.0000000   1.0078250   1.0078250
 NucSpn=           0           0           0           0           0           0           0           0           1           1
 AtZEff=   0.0000000   0.0000000   0.0000000   0.0000000   0.0000000   0.0000000   0.0000000   0.0000000   0.0000000   0.0000000
 NQMom=    0.0000000   0.0000000   0.0000000   0.0000000   0.0000000   0.0000000   0.0000000   0.0000000   0.0000000   0.0000000
 NMagM=    0.0000000   0.0000000   0.0000000   0.0000000   0.0000000   0.0000000   0.0000000   0.0000000   2.7928460   2.7928460

  Atom       151         152         153         154         155         156         157         158         159         160
 IAtWgt=           1           1           1           1           1           1           1           1           1           1
 AtmWgt=   1.0078250   1.0078250   1.0078250   1.0078250   1.0078250   1.0078250   1.0078250   1.0078250   1.0078250   1.0078250
 NucSpn=           1           1           1           1           1           1           1           1           1           1
 AtZEff=   0.0000000   0.0000000   0.0000000   0.0000000   0.0000000   0.0000000   0.0000000   0.0000000   0.0000000   0.0000000
 NQMom=    0.0000000   0.0000000   0.0000000   0.0000000   0.0000000   0.0000000   0.0000000   0.0000000   0.0000000   0.0000000
 NMagM=    2.7928460   2.7928460   2.7928460   2.7928460   2.7928460   2.7928460   2.7928460   2.7928460   2.7928460   2.7928460

  Atom       161         162         163         164         165         166         167         168         169         170
 IAtWgt=          12          12           1          12          12           1           1           1           1           1
 AtmWgt=  12.0000000  12.0000000   1.0078250  12.0000000  12.0000000   1.0078250   1.0078250   1.0078250   1.0078250   1.0078250
 NucSpn=           0           0           1           0           0           1           1           1           1           1
 AtZEff=   0.0000000   0.0000000   0.0000000   0.0000000   0.0000000   0.0000000   0.0000000   0.0000000   0.0000000   0.0000000
 NQMom=    0.0000000   0.0000000   0.0000000   0.0000000   0.0000000   0.0000000   0.0000000   0.0000000   0.0000000   0.0000000
 NMagM=    0.0000000   0.0000000   2.7928460   0.0000000   0.0000000   2.7928460   2.7928460   2.7928460   2.7928460   2.7928460

  Atom       171         172         173         174         175         176         177
 IAtWgt=           1           1           1           1           1           1           1
 AtmWgt=   1.0078250   1.0078250   1.0078250   1.0078250   1.0078250   1.0078250   1.0078250
 NucSpn=           1           1           1           1           1           1           1
 AtZEff=   0.0000000   0.0000000   0.0000000   0.0000000   0.0000000   0.0000000   0.0000000
 NQMom=    0.0000000   0.0000000   0.0000000   0.0000000   0.0000000   0.0000000   0.0000000
 NMagM=    2.7928460   2.7928460   2.7928460   2.7928460   2.7928460   2.7928460   2.7928460
 Leave Link  101 at Tue Jan 27 12:34:33 2015, MaxMem= 2147483648 cpu:       4.1
 (Enter /opt/g09/l202.exe)
 Stoichiometry    C85H76N4O12(1+,2)
 Framework group  C1[X(C85H76N4O12)]
 Deg. of freedom   525
 Full point group                 C1      NOp   1
 Largest Abelian subgroup         C1      NOp   1
 Largest concise Abelian subgroup C1      NOp   1
                         Standard orientation:                         
 ---------------------------------------------------------------------
 Center     Atomic      Atomic             Coordinates (Angstroms)
 Number     Number       Type             X           Y           Z
 ---------------------------------------------------------------------
      1          6           0        0.018671   -0.040829    0.127087
      2          6           0        0.567933   -1.095786    1.095021
      3          6           0        0.381753   -0.686472    2.430244
      4          6           0       -0.283059    0.617860    2.435947
      5          6           0       -0.505540    1.019291    1.103837
      6          6           0        1.057614    0.506655   -0.859427
      7          6           0        0.631934    0.305198   -2.186787
      8          6           0       -0.671467   -0.360807   -2.169140
      9          6           0       -1.049998   -0.583014   -0.830734
     10          6           0        2.267295    1.118325   -0.571558
     11          6           0        3.083668    1.564717   -1.629862
     12          6           0        2.656915    1.360832   -2.957910
     13          6           0        1.446865    0.731122   -3.238215
     14          6           0       -0.692107    1.451741    3.478945
     15          6           0       -1.305880    2.669103    3.188501
     16          6           0       -1.536547    3.066395    1.857722
     17          6           0       -1.126049    2.221344    0.807172
     18          6           0        1.177516   -2.300436    0.787225
     19          6           0        1.609817   -3.143935    1.830767
     20          6           0        1.418262   -2.735771    3.166174
     21          6           0        0.817698   -1.515163    3.466405
     22          6           0       -1.521897   -0.770423   -3.199212
     23          6           0       -2.723140   -1.401755   -2.887536
     24          6           0       -3.104331   -1.623339   -1.549341
     25          6           0       -2.250132   -1.198891   -0.511890
     26          7           0        4.321891    2.209053   -1.379210
     27          7           0       -2.165596    4.305122    1.559073
     28          7           0        2.208054   -4.390875    1.528574
     29          7           0       -4.341305   -2.253435   -1.265127
     30          6           0       -5.488106   -1.905679   -2.033945
     31          6           0        1.683569   -5.169813    0.457672
     32          6           0       -4.491068   -3.124264   -0.152919
     33          6           0        3.205732   -4.955549    2.369252
     34          6           0        4.520020    2.986779   -0.202098
     35          6           0        5.442413    1.912856   -2.207910
     36          6           0       -3.146707    4.852298    2.433772
     37          6           0       -1.618145    5.123731    0.529440
     38          6           0       -3.139730    6.207472    2.777589
     39          6           0       -4.123009    6.748435    3.609961
     40          6           0       -5.125177    5.926897    4.133534
     41          6           0       -5.133979    4.564079    3.802461
     42          6           0       -4.167601    4.037776    2.957851
     43          6           0        5.695531    2.877598    0.546052
     44          6           0        5.910354    3.669486    1.676962
     45          6           0        4.930084    4.575221    2.091680
     46          6           0        3.741672    4.681211    1.354299
     47          6           0        3.543580    3.907555    0.219891
     48          6           0        6.224920    2.934564   -2.779616
     49          6           0        7.355891    2.627222   -3.544899
     50          6           0        7.707589    1.295810   -3.780681
     51          6           0        6.919404    0.268377   -3.241794
     52          6           0        5.816492    0.581756   -2.461037
     53          6           0       -2.433144    5.704659   -0.460782
     54          6           0       -1.886348    6.549529   -1.433635
     55          6           0       -0.513145    6.805132   -1.455446
     56          6           0        0.314549    6.210550   -0.491621
     57          6           0       -0.239685    5.395524    0.484932
     58          6           0        0.329523   -5.494231    0.401222
     59          6           0       -0.217245   -6.239075   -0.648042
     60          6           0        0.629316   -6.694840   -1.660888
     61          6           0        1.999543   -6.392780   -1.625354
     62          6           0        2.526702   -5.625146   -0.589170
     63          6           0        4.245921   -4.169895    2.880133
     64          6           0        5.230088   -4.719861    3.702669
     65          6           0        5.204607   -6.085563    4.007752
     66          6           0        4.176721   -6.882153    3.487532
     67          6           0        3.186892   -6.323421    2.689034
     68          6           0       -3.485452   -4.052088    0.177395
     69          6           0       -3.642128   -4.914292    1.252385
     70          6           0       -4.816642   -4.895855    2.019705
     71          6           0       -5.826913   -3.987732    1.693911
     72          6           0       -5.654154   -3.105507    0.623182
     73          6           0       -5.915363   -0.582852   -2.128355
     74          6           0       -7.026660   -0.208561   -2.889871
     75          6           0       -7.747549   -1.199535   -3.558642
     76          6           0       -7.345353   -2.542143   -3.477248
     77          6           0       -6.219784   -2.897935   -2.737853
     78          1           0       -2.537358   -1.353474    0.523281
     79          1           0        1.324077   -2.602741   -0.244759
     80          1           0        1.738455   -3.390455    3.969618
     81          1           0        0.676473   -1.228759    4.505758
     82          1           0       -0.522103    1.171259    4.515483
     83          1           0       -1.609291    3.325948    3.996762
     84          1           0       -1.250034   -0.616355   -4.240674
     85          1           0       -3.381286   -1.736944   -3.682654
     86          1           0        1.142756    0.588888   -4.272362
     87          1           0        3.288624    1.700260   -3.772436
     88          1           0       -1.294590    2.519649   -0.223128
     89          1           0        2.588815    1.253783    0.455766
     90          8           0       -4.872482   -5.799036    3.048070
     91          6           0       -6.026922   -5.799055    3.868008
     92          8           0        6.124025   -6.730398    4.793175
     93          6           0        7.185344   -5.966664    5.336464
     94          8           0       -6.129882    6.346108    4.964510
     95          8           0        5.029078    5.394254    3.183977
     96          6           0        6.209939    5.323756    3.962825
     97          6           0       -6.161399    7.713972    5.330206
     98          1           0       -5.920294    3.935737    4.209628
     99          1           0       -4.193828    2.982834    2.703143
    100          1           0        6.460673    2.172097    0.238474
    101          1           0       -4.085186    7.805790    3.846647
    102          1           0       -2.361854    6.854554    2.385404
    103          1           0        2.990272    5.392829    1.683565
    104          1           0        2.621600    4.008839   -0.344143
    105          1           0       -6.441301   -2.396137    0.387943
    106          1           0       -6.745563   -3.942129    2.268220
    107          1           0       -2.866965   -5.629276    1.512530
    108          1           0       -2.577079   -4.091712   -0.415125
    109          1           0        6.016698   -4.076848    4.081484
    110          1           0        4.287871   -3.114409    2.631058
    111          1           0        4.163370   -7.939603    3.733732
    112          1           0        2.389128   -6.950507    2.303639
    113          1           0        6.816400   -5.168330    5.995249
    114          1           0        7.809082   -5.519646    4.550036
    115          1           0        7.789781   -6.663401    5.920978
    116          1           0        7.100057    5.586786    3.374876
    117          1           0        6.350927    4.324294    4.396818
    118          1           0        6.083427    6.050215    4.768099
    119          1           0       -7.027987    7.831173    5.984111
    120          1           0       -6.279172    8.366042    4.453800
    121          1           0       -5.254760    8.009608    5.875887
    122          1           0       -6.933602   -6.034788    3.293521
    123          1           0       -6.165880   -4.833252    4.372922
    124          1           0       -5.864679   -6.576338    4.617529
    125          1           0        2.617266   -6.755235   -2.437551
    126          8           0        3.834778   -5.263337   -0.501132
    127          1           0       -1.277682   -6.460596   -0.650771
    128          1           0       -0.316433   -5.139468    1.198977
    129          1           0       -5.352095    0.175653   -1.592831
    130          1           0       -7.317096    0.833931   -2.936780
    131          1           0       -7.925737   -3.276034   -4.022400
    132          8           0       -5.747724   -4.170117   -2.638291
    133          1           0       -2.567338    6.978117   -2.158791
    134          8           0       -3.797370    5.532396   -0.481557
    135          1           0        1.379509    6.418644   -0.513086
    136          1           0        0.398572    4.949879    1.242175
    137          1           0        5.219937   -0.214010   -2.025186
    138          1           0        7.202182   -0.762513   -3.428600
    139          1           0        7.926175    3.457255   -3.943845
    140          8           0        5.963551    4.266504   -2.560628
    141          8           0        0.230172   -7.440141   -2.734226
    142          6           0       -1.147073   -7.760690   -2.846208
    143          8           0        8.785564    0.898921   -4.520513
    144          6           0        9.616434    1.901897   -5.080811
    145          8           0        0.111167    7.606364   -2.369160
    146          6           0       -0.685280    8.237791   -3.357816
    147          8           0       -8.857882   -0.975808   -4.323503
    148          6           0       -9.321814    0.358344   -4.450077
    149          1           0       -1.245794   -8.337891   -3.767683
    150          1           0       -1.767330   -6.857298   -2.914269
    151          1           0       -1.490765   -8.369253   -1.999155
    152          1           0      -10.201994    0.309850   -5.094027
    153          1           0       -8.567025    1.006126   -4.915514
    154          1           0       -9.606965    0.780975   -3.477472
    155          1           0        0.002860    8.829026   -3.965055
    156          1           0       -1.435576    8.902123   -2.908616
    157          1           0       -1.193743    7.503730   -3.997228
    158          1           0       10.409047    1.372381   -5.612958
    159          1           0       10.062379    2.537659   -4.304324
    160          1           0        9.064968    2.534930   -5.788942
    161          6           0       -6.463969   -5.208745   -3.285791
    162          6           0       -4.248610    4.221527   -0.826962
    163          1           0        6.838817    3.559754    2.225886
    164          6           0        4.788037    4.777477   -3.192016
    165          6           0        4.734458   -5.730092   -1.493255
    166          1           0        5.714487   -5.342006   -1.210393
    167          1           0        4.467313   -5.354201   -2.489754
    168          1           0        4.770771   -6.826910   -1.519214
    169          1           0       -5.923899   -6.129137   -3.056824
    170          1           0       -6.490852   -5.062976   -4.373877
    171          1           0       -7.491365   -5.286473   -2.907155
    172          1           0       -5.339942    4.263513   -0.805384
    173          1           0       -3.899104    3.469656   -0.112248
    174          1           0       -3.912531    3.948363   -1.836472
    175          1           0        4.866285    4.692478   -4.284623
    176          1           0        4.728907    5.831601   -2.912867
    177          1           0        3.885057    4.260764   -2.851560
 ---------------------------------------------------------------------
 Rotational constants (GHZ):      0.0140334      0.0134687      0.0094078
 Leave Link  202 at Tue Jan 27 12:34:33 2015, MaxMem= 2147483648 cpu:       0.1
 (Enter /opt/g09/l301.exe)
 Standard basis: CC-pVDZ (5D, 7F)
 Ernie: Thresh=  0.10000D-02 Tol=  0.10000D-05 Strict=F.
 Ernie:  202 primitive shells out of 2602 were deleted.
 There are  1794 symmetry adapted basis functions of A   symmetry.
 Integral buffers will be    131072 words long.
 Raffenetti 2 integral format.
 Two-electron integral symmetry is turned on.
  1794 basis functions,  3865 primitive gaussians,  1895 cartesian basis functions
   355 alpha electrons      354 beta electrons
       nuclear repulsion energy     19252.8673223999 Hartrees.
 IExCor=  402 DFT=T Ex+Corr=B3LYP ExCW=0 ScaHFX=  0.200000
 ScaDFX=  0.800000  0.720000  1.000000  0.810000 ScalE2=  1.000000  1.000000
 IRadAn=      0 IRanWt=     -1 IRanGd=            0 ICorTp=0
 NAtoms=  177 NActive=  177 NUniq=  177 SFac= 7.50D-01 NAtFMM=   80 NAOKFM=T Big=T
 Leave Link  301 at Tue Jan 27 12:34:33 2015, MaxMem= 2147483648 cpu:       1.8
 (Enter /opt/g09/l302.exe)
 NPDir=0 NMtPBC=     1 NCelOv=     1 NCel=       1 NClECP=     1 NCelD=      1
         NCelK=      1 NCelE2=     1 NClLst=     1 CellRange=     0.0.
 One-electron integrals computed using PRISM.
 NBasis=  1794 RedAO= T  NBF=  1794
 NBsUse=  1794 1.00D-06 NBFU=  1794
 Precomputing XC quadrature grid using
 IXCGrd= 2 IRadAn=           0 IRanWt=          -1 IRanGd=           0 AccXCQ= 1.00D-10.
 NRdTot=   11607 NPtTot=     1487580 NUsed=     1571143 NTot=     1571175
 NSgBfM=  1284  1290  1290  1294  1311 NAtAll=   177   169.
 Leave Link  302 at Tue Jan 27 12:35:00 2015, MaxMem= 2147483648 cpu:     626.5
 (Enter /opt/g09/l303.exe)
 DipDrv:  MaxL=1.
 Leave Link  303 at Tue Jan 27 12:35:02 2015, MaxMem= 2147483648 cpu:      43.2
 (Enter /opt/g09/l401.exe)
 Harris functional with IExCor=  402 diagonalized for initial guess.
 ExpMin= 1.22D-01 ExpMax= 1.17D+04 ExpMxC= 4.01D+02 IAcc=1 IRadAn=         1 AccDes= 0.00D+00
 HarFok:  IExCor=  402 AccDes= 0.00D+00 IRadAn=         1 IDoV= 1
 ScaDFX=  1.000000  1.000000  1.000000  1.000000
 FoFCou: FMM=F IPFlag=           0 FMFlag=      100000 FMFlg1=        2001
         NFxFlg=           0 DoJE=T BraDBF=F KetDBF=T FulRan=T
         Omega=  0.000000  0.000000  1.000000  0.000000  0.000000 ICntrl=     500 IOpCl=  0
         NMat0=    1 NMatS0=    1 NMatT0=    0 NMatD0=    1 NMtDS0=    0 NMtDT0=    0
         I1Cent=           4 NGrid=           0.
 Petite list used in FoFCou.
 Harris En= -4406.49847598394    
 Initial guess orbital symmetries:
 Alpha Orbitals:
       Occupied  (A) (A) (A) (A) (A) (A) (A) (A) (A) (A) (A) (A)
                 (A) (A) (A) (A) (A) (A) (A) (A) (A) (A) (A) (A)
                 (A) (A) (A) (A) (A) (A) (A) (A) (A) (A) (A) (A)
                 (A) (A) (A) (A) (A) (A) (A) (A) (A) (A) (A) (A)
                 (A) (A) (A) (A) (A) (A) (A) (A) (A) (A) (A) (A)
                 (A) (A) (A) (A) (A) (A) (A) (A) (A) (A) (A) (A)
                 (A) (A) (A) (A) (A) (A) (A) (A) (A) (A) (A) (A)
                 (A) (A) (A) (A) (A) (A) (A) (A) (A) (A) (A) (A)
                 (A) (A) (A) (A) (A) (A) (A) (A) (A) (A) (A) (A)
                 (A) (A) (A) (A) (A) (A) (A) (A) (A) (A) (A) (A)
                 (A) (A) (A) (A) (A) (A) (A) (A) (A) (A) (A) (A)
                 (A) (A) (A) (A) (A) (A) (A) (A) (A) (A) (A) (A)
                 (A) (A) (A) (A) (A) (A) (A) (A) (A) (A) (A) (A)
                 (A) (A) (A) (A) (A) (A) (A) (A) (A) (A) (A) (A)
                 (A) (A) (A) (A) (A) (A) (A) (A) (A) (A) (A) (A)
                 (A) (A) (A) (A) (A) (A) (A) (A) (A) (A) (A) (A)
                 (A) (A) (A) (A) (A) (A) (A) (A) (A) (A) (A) (A)
                 (A) (A) (A) (A) (A) (A) (A) (A) (A) (A) (A) (A)
                 (A) (A) (A) (A) (A) (A) (A) (A) (A) (A) (A) (A)
                 (A) (A) (A) (A) (A) (A) (A) (A) (A) (A) (A) (A)
                 (A) (A) (A) (A) (A) (A) (A) (A) (A) (A) (A) (A)
                 (A) (A) (A) (A) (A) (A) (A) (A) (A) (A) (A) (A)
                 (A) (A) (A) (A) (A) (A) (A) (A) (A) (A) (A) (A)
                 (A) (A) (A) (A) (A) (A) (A) (A) (A) (A) (A) (A)
                 (A) (A) (A) (A) (A) (A) (A) (A) (A) (A) (A) (A)
                 (A) (A) (A) (A) (A) (A) (A) (A) (A) (A) (A) (A)
                 (A) (A) (A) (A) (A) (A) (A) (A) (A) (A) (A) (A)
                 (A) (A) (A) (A) (A) (A) (A) (A) (A) (A) (A) (A)
                 (A) (A) (A) (A) (A) (A) (A) (A) (A) (A) (A) (A)
                 (A) (A) (A) (A) (A) (A) (A)
       Virtual   (A) (A) (A) (A) (A) (A) (A) (A) (A) (A) (A) (A)
                 (A) (A) (A) (A) (A) (A) (A) (A) (A) (A) (A) (A)
                 (A) (A) (A) (A) (A) (A) (A) (A) (A) (A) (A) (A)
                 (A) (A) (A) (A) (A) (A) (A) (A) (A) (A) (A) (A)
                 (A) (A) (A) (A) (A) (A) (A) (A) (A) (A) (A) (A)
                 (A) (A) (A) (A) (A) (A) (A) (A) (A) (A) (A) (A)
                 (A) (A) (A) (A) (A) (A) (A) (A) (A) (A) (A) (A)
                 (A) (A) (A) (A) (A) (A) (A) (A) (A) (A) (A) (A)
                 (A) (A) (A) (A) (A) (A) (A) (A) (A) (A) (A) (A)
                 (A) (A) (A) (A) (A) (A) (A) (A) (A) (A) (A) (A)
                 (A) (A) (A) (A) (A) (A) (A) (A) (A) (A) (A) (A)
                 (A) (A) (A) (A) (A) (A) (A) (A) (A) (A) (A) (A)
                 (A) (A) (A) (A) (A) (A) (A) (A) (A) (A) (A) (A)
                 (A) (A) (A) (A) (A) (A) (A) (A) (A) (A) (A) (A)
                 (A) (A) (A) (A) (A) (A) (A) (A) (A) (A) (A) (A)
                 (A) (A) (A) (A) (A) (A) (A) (A) (A) (A) (A) (A)
                 (A) (A) (A) (A) (A) (A) (A) (A) (A) (A) (A) (A)
                 (A) (A) (A) (A) (A) (A) (A) (A) (A) (A) (A) (A)
                 (A) (A) (A) (A) (A) (A) (A) (A) (A) (A) (A) (A)
                 (A) (A) (A) (A) (A) (A) (A) (A) (A) (A) (A) (A)
                 (A) (A) (A) (A) (A) (A) (A) (A) (A) (A) (A) (A)
                 (A) (A) (A) (A) (A) (A) (A) (A) (A) (A) (A) (A)
                 (A) (A) (A) (A) (A) (A) (A) (A) (A) (A) (A) (A)
                 (A) (A) (A) (A) (A) (A) (A) (A) (A) (A) (A) (A)
                 (A) (A) (A) (A) (A) (A) (A) (A) (A) (A) (A) (A)
                 (A) (A) (A) (A) (A) (A) (A) (A) (A) (A) (A) (A)
                 (A) (A) (A) (A) (A) (A) (A) (A) (A) (A) (A) (A)
                 (A) (A) (A) (A) (A) (A) (A) (A) (A) (A) (A) (A)
                 (A) (A) (A) (A) (A) (A) (A) (A) (A) (A) (A) (A)
                 (A) (A) (A) (A) (A) (A) (A) (A) (A) (A) (A) (A)
                 (A) (A) (A) (A) (A) (A) (A) (A) (A) (A) (A) (A)
                 (A) (A) (A) (A) (A) (A) (A) (A) (A) (A) (A) (A)
                 (A) (A) (A) (A) (A) (A) (A) (A) (A) (A) (A) (A)
                 (A) (A) (A) (A) (A) (A) (A) (A) (A) (A) (A) (A)
                 (A) (A) (A) (A) (A) (A) (A) (A) (A) (A) (A) (A)
                 (A) (A) (A) (A) (A) (A) (A) (A) (A) (A) (A) (A)
                 (A) (A) (A) (A) (A) (A) (A) (A) (A) (A) (A) (A)
                 (A) (A) (A) (A) (A) (A) (A) (A) (A) (A) (A) (A)
                 (A) (A) (A) (A) (A) (A) (A) (A) (A) (A) (A) (A)
                 (A) (A) (A) (A) (A) (A) (A) (A) (A) (A) (A) (A)
                 (A) (A) (A) (A) (A) (A) (A) (A) (A) (A) (A) (A)
                 (A) (A) (A) (A) (A) (A) (A) (A) (A) (A) (A) (A)
                 (A) (A) (A) (A) (A) (A) (A) (A) (A) (A) (A) (A)
                 (A) (A) (A) (A) (A) (A) (A) (A) (A) (A) (A) (A)
                 (A) (A) (A) (A) (A) (A) (A) (A) (A) (A) (A) (A)
                 (A) (A) (A) (A) (A) (A) (A) (A) (A) (A) (A) (A)
                 (A) (A) (A) (A) (A) (A) (A) (A) (A) (A) (A) (A)
                 (A) (A) (A) (A) (A) (A) (A) (A) (A) (A) (A) (A)
                 (A) (A) (A) (A) (A) (A) (A) (A) (A) (A) (A) (A)
                 (A) (A) (A) (A) (A) (A) (A) (A) (A) (A) (A) (A)
                 (A) (A) (A) (A) (A) (A) (A) (A) (A) (A) (A) (A)
                 (A) (A) (A) (A) (A) (A) (A) (A) (A) (A) (A) (A)
                 (A) (A) (A) (A) (A) (A) (A) (A) (A) (A) (A) (A)
                 (A) (A) (A) (A) (A) (A) (A) (A) (A) (A) (A) (A)
                 (A) (A) (A) (A) (A) (A) (A) (A) (A) (A) (A) (A)
                 (A) (A) (A) (A) (A) (A) (A) (A) (A) (A) (A) (A)
                 (A) (A) (A) (A) (A) (A) (A) (A) (A) (A) (A) (A)
                 (A) (A) (A) (A) (A) (A) (A) (A) (A) (A) (A) (A)
                 (A) (A) (A) (A) (A) (A) (A) (A) (A) (A) (A) (A)
                 (A) (A) (A) (A) (A) (A) (A) (A) (A) (A) (A) (A)
                 (A) (A) (A) (A) (A) (A) (A) (A) (A) (A) (A) (A)
                 (A) (A) (A) (A) (A) (A) (A) (A) (A) (A) (A) (A)
                 (A) (A) (A) (A) (A) (A) (A) (A) (A) (A) (A) (A)
                 (A) (A) (A) (A) (A) (A) (A) (A) (A) (A) (A) (A)
                 (A) (A) (A) (A) (A) (A) (A) (A) (A) (A) (A) (A)
                 (A) (A) (A) (A) (A) (A) (A) (A) (A) (A) (A) (A)
                 (A) (A) (A) (A) (A) (A) (A) (A) (A) (A) (A) (A)
                 (A) (A) (A) (A) (A) (A) (A) (A) (A) (A) (A) (A)
                 (A) (A) (A) (A) (A) (A) (A) (A) (A) (A) (A) (A)
                 (A) (A) (A) (A) (A) (A) (A) (A) (A) (A) (A) (A)
                 (A) (A) (A) (A) (A) (A) (A) (A) (A) (A) (A) (A)
                 (A) (A) (A) (A) (A) (A) (A) (A) (A) (A) (A) (A)
                 (A) (A) (A) (A) (A) (A) (A) (A) (A) (A) (A) (A)
                 (A) (A) (A) (A) (A) (A) (A) (A) (A) (A) (A) (A)
                 (A) (A) (A) (A) (A) (A) (A) (A) (A) (A) (A) (A)
                 (A) (A) (A) (A) (A) (A) (A) (A) (A) (A) (A) (A)
                 (A) (A) (A) (A) (A) (A) (A) (A) (A) (A) (A) (A)
                 (A) (A) (A) (A) (A) (A) (A) (A) (A) (A) (A) (A)
                 (A) (A) (A) (A) (A) (A) (A) (A) (A) (A) (A) (A)
                 (A) (A) (A) (A) (A) (A) (A) (A) (A) (A) (A) (A)
                 (A) (A) (A) (A) (A) (A) (A) (A) (A) (A) (A) (A)
                 (A) (A) (A) (A) (A) (A) (A) (A) (A) (A) (A) (A)
                 (A) (A) (A) (A) (A) (A) (A) (A) (A) (A) (A) (A)
                 (A) (A) (A) (A) (A) (A) (A) (A) (A) (A) (A) (A)
                 (A) (A) (A) (A) (A) (A) (A) (A) (A) (A) (A) (A)
                 (A) (A) (A) (A) (A) (A) (A) (A) (A) (A) (A) (A)
                 (A) (A) (A) (A) (A) (A) (A) (A) (A) (A) (A) (A)
                 (A) (A) (A) (A) (A) (A) (A) (A) (A) (A) (A) (A)
                 (A) (A) (A) (A) (A) (A) (A) (A) (A) (A) (A) (A)
                 (A) (A) (A) (A) (A) (A) (A) (A) (A) (A) (A) (A)
                 (A) (A) (A) (A) (A) (A) (A) (A) (A) (A) (A) (A)
                 (A) (A) (A) (A) (A) (A) (A) (A) (A) (A) (A) (A)
                 (A) (A) (A) (A) (A) (A) (A) (A) (A) (A) (A) (A)
                 (A) (A) (A) (A) (A) (A) (A) (A) (A) (A) (A) (A)
                 (A) (A) (A) (A) (A) (A) (A) (A) (A) (A) (A) (A)
                 (A) (A) (A) (A) (A) (A) (A) (A) (A) (A) (A) (A)
                 (A) (A) (A) (A) (A) (A) (A) (A) (A) (A) (A) (A)
                 (A) (A) (A) (A) (A) (A) (A) (A) (A) (A) (A) (A)
                 (A) (A) (A) (A) (A) (A) (A) (A) (A) (A) (A) (A)
                 (A) (A) (A) (A) (A) (A) (A) (A) (A) (A) (A) (A)
                 (A) (A) (A) (A) (A) (A) (A) (A) (A) (A) (A) (A)
                 (A) (A) (A) (A) (A) (A) (A) (A) (A) (A) (A) (A)
                 (A) (A) (A) (A) (A) (A) (A) (A) (A) (A) (A) (A)
                 (A) (A) (A) (A) (A) (A) (A) (A) (A) (A) (A) (A)
                 (A) (A) (A) (A) (A) (A) (A) (A) (A) (A) (A) (A)
                 (A) (A) (A) (A) (A) (A) (A) (A) (A) (A) (A) (A)
                 (A) (A) (A) (A) (A) (A) (A) (A) (A) (A) (A) (A)
                 (A) (A) (A) (A) (A) (A) (A) (A) (A) (A) (A) (A)
                 (A) (A) (A) (A) (A) (A) (A) (A) (A) (A) (A) (A)
                 (A) (A) (A) (A) (A) (A) (A) (A) (A) (A) (A) (A)
                 (A) (A) (A) (A) (A) (A) (A) (A) (A) (A) (A) (A)
                 (A) (A) (A) (A) (A) (A) (A) (A) (A) (A) (A) (A)
                 (A) (A) (A) (A) (A) (A) (A) (A) (A) (A) (A) (A)
                 (A) (A) (A) (A) (A) (A) (A) (A) (A) (A) (A) (A)
                 (A) (A) (A) (A) (A) (A) (A) (A) (A) (A) (A) (A)
                 (A) (A) (A) (A) (A) (A) (A) (A) (A) (A) (A) (A)
                 (A) (A) (A) (A) (A) (A) (A) (A) (A) (A) (A) (A)
                 (A) (A) (A) (A) (A) (A) (A) (A) (A) (A) (A) (A)
                 (A) (A) (A) (A) (A) (A) (A) (A) (A) (A) (A) (A)
                 (A) (A) (A) (A) (A) (A) (A) (A) (A) (A) (A)
 Beta  Orbitals:
       Occupied  (A) (A) (A) (A) (A) (A) (A) (A) (A) (A) (A) (A)
                 (A) (A) (A) (A) (A) (A) (A) (A) (A) (A) (A) (A)
                 (A) (A) (A) (A) (A) (A) (A) (A) (A) (A) (A) (A)
                 (A) (A) (A) (A) (A) (A) (A) (A) (A) (A) (A) (A)
                 (A) (A) (A) (A) (A) (A) (A) (A) (A) (A) (A) (A)
                 (A) (A) (A) (A) (A) (A) (A) (A) (A) (A) (A) (A)
                 (A) (A) (A) (A) (A) (A) (A) (A) (A) (A) (A) (A)
                 (A) (A) (A) (A) (A) (A) (A) (A) (A) (A) (A) (A)
                 (A) (A) (A) (A) (A) (A) (A) (A) (A) (A) (A) (A)
                 (A) (A) (A) (A) (A) (A) (A) (A) (A) (A) (A) (A)
                 (A) (A) (A) (A) (A) (A) (A) (A) (A) (A) (A) (A)
                 (A) (A) (A) (A) (A) (A) (A) (A) (A) (A) (A) (A)
                 (A) (A) (A) (A) (A) (A) (A) (A) (A) (A) (A) (A)
                 (A) (A) (A) (A) (A) (A) (A) (A) (A) (A) (A) (A)
                 (A) (A) (A) (A) (A) (A) (A) (A) (A) (A) (A) (A)
                 (A) (A) (A) (A) (A) (A) (A) (A) (A) (A) (A) (A)
                 (A) (A) (A) (A) (A) (A) (A) (A) (A) (A) (A) (A)
                 (A) (A) (A) (A) (A) (A) (A) (A) (A) (A) (A) (A)
                 (A) (A) (A) (A) (A) (A) (A) (A) (A) (A) (A) (A)
                 (A) (A) (A) (A) (A) (A) (A) (A) (A) (A) (A) (A)
                 (A) (A) (A) (A) (A) (A) (A) (A) (A) (A) (A) (A)
                 (A) (A) (A) (A) (A) (A) (A) (A) (A) (A) (A) (A)
                 (A) (A) (A) (A) (A) (A) (A) (A) (A) (A) (A) (A)
                 (A) (A) (A) (A) (A) (A) (A) (A) (A) (A) (A) (A)
                 (A) (A) (A) (A) (A) (A) (A) (A) (A) (A) (A) (A)
                 (A) (A) (A) (A) (A) (A) (A) (A) (A) (A) (A) (A)
                 (A) (A) (A) (A) (A) (A) (A) (A) (A) (A) (A) (A)
                 (A) (A) (A) (A) (A) (A) (A) (A) (A) (A) (A) (A)
                 (A) (A) (A) (A) (A) (A) (A) (A) (A) (A) (A) (A)
                 (A) (A) (A) (A) (A) (A)
       Virtual   (A) (A) (A) (A) (A) (A) (A) (A) (A) (A) (A) (A)
                 (A) (A) (A) (A) (A) (A) (A) (A) (A) (A) (A) (A)
                 (A) (A) (A) (A) (A) (A) (A) (A) (A) (A) (A) (A)
                 (A) (A) (A) (A) (A) (A) (A) (A) (A) (A) (A) (A)
                 (A) (A) (A) (A) (A) (A) (A) (A) (A) (A) (A) (A)
                 (A) (A) (A) (A) (A) (A) (A) (A) (A) (A) (A) (A)
                 (A) (A) (A) (A) (A) (A) (A) (A) (A) (A) (A) (A)
                 (A) (A) (A) (A) (A) (A) (A) (A) (A) (A) (A) (A)
                 (A) (A) (A) (A) (A) (A) (A) (A) (A) (A) (A) (A)
                 (A) (A) (A) (A) (A) (A) (A) (A) (A) (A) (A) (A)
                 (A) (A) (A) (A) (A) (A) (A) (A) (A) (A) (A) (A)
                 (A) (A) (A) (A) (A) (A) (A) (A) (A) (A) (A) (A)
                 (A) (A) (A) (A) (A) (A) (A) (A) (A) (A) (A) (A)
                 (A) (A) (A) (A) (A) (A) (A) (A) (A) (A) (A) (A)
                 (A) (A) (A) (A) (A) (A) (A) (A) (A) (A) (A) (A)
                 (A) (A) (A) (A) (A) (A) (A) (A) (A) (A) (A) (A)
                 (A) (A) (A) (A) (A) (A) (A) (A) (A) (A) (A) (A)
                 (A) (A) (A) (A) (A) (A) (A) (A) (A) (A) (A) (A)
                 (A) (A) (A) (A) (A) (A) (A) (A) (A) (A) (A) (A)
                 (A) (A) (A) (A) (A) (A) (A) (A) (A) (A) (A) (A)
                 (A) (A) (A) (A) (A) (A) (A) (A) (A) (A) (A) (A)
                 (A) (A) (A) (A) (A) (A) (A) (A) (A) (A) (A) (A)
                 (A) (A) (A) (A) (A) (A) (A) (A) (A) (A) (A) (A)
                 (A) (A) (A) (A) (A) (A) (A) (A) (A) (A) (A) (A)
                 (A) (A) (A) (A) (A) (A) (A) (A) (A) (A) (A) (A)
                 (A) (A) (A) (A) (A) (A) (A) (A) (A) (A) (A) (A)
                 (A) (A) (A) (A) (A) (A) (A) (A) (A) (A) (A) (A)
                 (A) (A) (A) (A) (A) (A) (A) (A) (A) (A) (A) (A)
                 (A) (A) (A) (A) (A) (A) (A) (A) (A) (A) (A) (A)
                 (A) (A) (A) (A) (A) (A) (A) (A) (A) (A) (A) (A)
                 (A) (A) (A) (A) (A) (A) (A) (A) (A) (A) (A) (A)
                 (A) (A) (A) (A) (A) (A) (A) (A) (A) (A) (A) (A)
                 (A) (A) (A) (A) (A) (A) (A) (A) (A) (A) (A) (A)
                 (A) (A) (A) (A) (A) (A) (A) (A) (A) (A) (A) (A)
                 (A) (A) (A) (A) (A) (A) (A) (A) (A) (A) (A) (A)
                 (A) (A) (A) (A) (A) (A) (A) (A) (A) (A) (A) (A)
                 (A) (A) (A) (A) (A) (A) (A) (A) (A) (A) (A) (A)
                 (A) (A) (A) (A) (A) (A) (A) (A) (A) (A) (A) (A)
                 (A) (A) (A) (A) (A) (A) (A) (A) (A) (A) (A) (A)
                 (A) (A) (A) (A) (A) (A) (A) (A) (A) (A) (A) (A)
                 (A) (A) (A) (A) (A) (A) (A) (A) (A) (A) (A) (A)
                 (A) (A) (A) (A) (A) (A) (A) (A) (A) (A) (A) (A)
                 (A) (A) (A) (A) (A) (A) (A) (A) (A) (A) (A) (A)
                 (A) (A) (A) (A) (A) (A) (A) (A) (A) (A) (A) (A)
                 (A) (A) (A) (A) (A) (A) (A) (A) (A) (A) (A) (A)
                 (A) (A) (A) (A) (A) (A) (A) (A) (A) (A) (A) (A)
                 (A) (A) (A) (A) (A) (A) (A) (A) (A) (A) (A) (A)
                 (A) (A) (A) (A) (A) (A) (A) (A) (A) (A) (A) (A)
                 (A) (A) (A) (A) (A) (A) (A) (A) (A) (A) (A) (A)
                 (A) (A) (A) (A) (A) (A) (A) (A) (A) (A) (A) (A)
                 (A) (A) (A) (A) (A) (A) (A) (A) (A) (A) (A) (A)
                 (A) (A) (A) (A) (A) (A) (A) (A) (A) (A) (A) (A)
                 (A) (A) (A) (A) (A) (A) (A) (A) (A) (A) (A) (A)
                 (A) (A) (A) (A) (A) (A) (A) (A) (A) (A) (A) (A)
                 (A) (A) (A) (A) (A) (A) (A) (A) (A) (A) (A) (A)
                 (A) (A) (A) (A) (A) (A) (A) (A) (A) (A) (A) (A)
                 (A) (A) (A) (A) (A) (A) (A) (A) (A) (A) (A) (A)
                 (A) (A) (A) (A) (A) (A) (A) (A) (A) (A) (A) (A)
                 (A) (A) (A) (A) (A) (A) (A) (A) (A) (A) (A) (A)
                 (A) (A) (A) (A) (A) (A) (A) (A) (A) (A) (A) (A)
                 (A) (A) (A) (A) (A) (A) (A) (A) (A) (A) (A) (A)
                 (A) (A) (A) (A) (A) (A) (A) (A) (A) (A) (A) (A)
                 (A) (A) (A) (A) (A) (A) (A) (A) (A) (A) (A) (A)
                 (A) (A) (A) (A) (A) (A) (A) (A) (A) (A) (A) (A)
                 (A) (A) (A) (A) (A) (A) (A) (A) (A) (A) (A) (A)
                 (A) (A) (A) (A) (A) (A) (A) (A) (A) (A) (A) (A)
                 (A) (A) (A) (A) (A) (A) (A) (A) (A) (A) (A) (A)
                 (A) (A) (A) (A) (A) (A) (A) (A) (A) (A) (A) (A)
                 (A) (A) (A) (A) (A) (A) (A) (A) (A) (A) (A) (A)
                 (A) (A) (A) (A) (A) (A) (A) (A) (A) (A) (A) (A)
                 (A) (A) (A) (A) (A) (A) (A) (A) (A) (A) (A) (A)
                 (A) (A) (A) (A) (A) (A) (A) (A) (A) (A) (A) (A)
                 (A) (A) (A) (A) (A) (A) (A) (A) (A) (A) (A) (A)
                 (A) (A) (A) (A) (A) (A) (A) (A) (A) (A) (A) (A)
                 (A) (A) (A) (A) (A) (A) (A) (A) (A) (A) (A) (A)
                 (A) (A) (A) (A) (A) (A) (A) (A) (A) (A) (A) (A)
                 (A) (A) (A) (A) (A) (A) (A) (A) (A) (A) (A) (A)
                 (A) (A) (A) (A) (A) (A) (A) (A) (A) (A) (A) (A)
                 (A) (A) (A) (A) (A) (A) (A) (A) (A) (A) (A) (A)
                 (A) (A) (A) (A) (A) (A) (A) (A) (A) (A) (A) (A)
                 (A) (A) (A) (A) (A) (A) (A) (A) (A) (A) (A) (A)
                 (A) (A) (A) (A) (A) (A) (A) (A) (A) (A) (A) (A)
                 (A) (A) (A) (A) (A) (A) (A) (A) (A) (A) (A) (A)
                 (A) (A) (A) (A) (A) (A) (A) (A) (A) (A) (A) (A)
                 (A) (A) (A) (A) (A) (A) (A) (A) (A) (A) (A) (A)
                 (A) (A) (A) (A) (A) (A) (A) (A) (A) (A) (A) (A)
                 (A) (A) (A) (A) (A) (A) (A) (A) (A) (A) (A) (A)
                 (A) (A) (A) (A) (A) (A) (A) (A) (A) (A) (A) (A)
                 (A) (A) (A) (A) (A) (A) (A) (A) (A) (A) (A) (A)
                 (A) (A) (A) (A) (A) (A) (A) (A) (A) (A) (A) (A)
                 (A) (A) (A) (A) (A) (A) (A) (A) (A) (A) (A) (A)
                 (A) (A) (A) (A) (A) (A) (A) (A) (A) (A) (A) (A)
                 (A) (A) (A) (A) (A) (A) (A) (A) (A) (A) (A) (A)
                 (A) (A) (A) (A) (A) (A) (A) (A) (A) (A) (A) (A)
                 (A) (A) (A) (A) (A) (A) (A) (A) (A) (A) (A) (A)
                 (A) (A) (A) (A) (A) (A) (A) (A) (A) (A) (A) (A)
                 (A) (A) (A) (A) (A) (A) (A) (A) (A) (A) (A) (A)
                 (A) (A) (A) (A) (A) (A) (A) (A) (A) (A) (A) (A)
                 (A) (A) (A) (A) (A) (A) (A) (A) (A) (A) (A) (A)
                 (A) (A) (A) (A) (A) (A) (A) (A) (A) (A) (A) (A)
                 (A) (A) (A) (A) (A) (A) (A) (A) (A) (A) (A) (A)
                 (A) (A) (A) (A) (A) (A) (A) (A) (A) (A) (A) (A)
                 (A) (A) (A) (A) (A) (A) (A) (A) (A) (A) (A) (A)
                 (A) (A) (A) (A) (A) (A) (A) (A) (A) (A) (A) (A)
                 (A) (A) (A) (A) (A) (A) (A) (A) (A) (A) (A) (A)
                 (A) (A) (A) (A) (A) (A) (A) (A) (A) (A) (A) (A)
                 (A) (A) (A) (A) (A) (A) (A) (A) (A) (A) (A) (A)
                 (A) (A) (A) (A) (A) (A) (A) (A) (A) (A) (A) (A)
                 (A) (A) (A) (A) (A) (A) (A) (A) (A) (A) (A) (A)
                 (A) (A) (A) (A) (A) (A) (A) (A) (A) (A) (A) (A)
                 (A) (A) (A) (A) (A) (A) (A) (A) (A) (A) (A) (A)
                 (A) (A) (A) (A) (A) (A) (A) (A) (A) (A) (A) (A)
                 (A) (A) (A) (A) (A) (A) (A) (A) (A) (A) (A) (A)
                 (A) (A) (A) (A) (A) (A) (A) (A) (A) (A) (A) (A)
                 (A) (A) (A) (A) (A) (A) (A) (A) (A) (A) (A) (A)
                 (A) (A) (A) (A) (A) (A) (A) (A) (A) (A) (A) (A)
                 (A) (A) (A) (A) (A) (A) (A) (A) (A) (A) (A) (A)
                 (A) (A) (A) (A) (A) (A) (A) (A) (A) (A) (A) (A)
                 (A) (A) (A) (A) (A) (A) (A) (A) (A) (A) (A) (A)
                 (A) (A) (A) (A) (A) (A) (A) (A) (A) (A) (A) (A)
 The electronic state of the initial guess is 2-A.
 Initial guess <Sx>= 0.0000 <Sy>= 0.0000 <Sz>= 0.5000 <S**2>= 0.7500 S= 0.5000
 Leave Link  401 at Tue Jan 27 12:35:30 2015, MaxMem= 2147483648 cpu:     687.6
 (Enter /opt/g09/l502.exe)
 UHF open shell SCF:
 Requested convergence on RMS density matrix=1.00D-08 within 128 cycles.
 Requested convergence on MAX density matrix=1.00D-06.
 Requested convergence on             energy=1.00D-06.
 No special actions if energy rises.
 Using DIIS extrapolation, IDIIS=  1040.
 Integral symmetry usage will be decided dynamically.
      1569537 words used for storage of precomputed grid.
 IEnd=    12420590 IEndB=    12420590 NGot=  2147483648 MDV=  2138672619
 LenX=  2138672619 LenY=  2135079699
 Fock matrices will be formed incrementally for  20 cycles.
 Integral accuracy reduced to 1.0D-05 until final iterations.

 Cycle   1  Pass 0  IDiag  1:
 FoFCou: FMM=T IPFlag=           0 FMFlag=      100000 FMFlg1=        2001
         NFxFlg=           0 DoJE=F BraDBF=F KetDBF=F FulRan=T
         Omega=  0.000000  0.000000  1.000000  0.000000  0.000000 ICntrl=       0 IOpCl=  1
         NMat0=    1 NMatS0=    1 NMatT0=    0 NMatD0=    1 NMtDS0=    0 NMtDT0=    0
         I1Cent=           0 NGrid=           0.
 Symmetry not used in FoFCou.
 FMM levels:  10  Number of levels for PrismC:   9
 E= -4404.59186368584    
 DIIS: error= 2.11D-02 at cycle   1 NSaved=   1.
 NSaved= 1 IEnMin= 1 EnMin= -4404.59186368584     IErMin= 1 ErrMin= 2.11D-02
 ErrMax= 2.11D-02 EMaxC= 1.00D-01 BMatC= 6.58D+00 BMatP= 6.58D+00
 IDIUse=3 WtCom= 7.89D-01 WtEn= 2.11D-01
 Coeff-Com:  0.100D+01
 Coeff-En:   0.100D+01
 Coeff:      0.100D+01
 Gap=     0.167 Goal=   None    Shift=    0.000
 Gap=     0.013 Goal=   None    Shift=    0.000
 GapD=    0.013 DampG=0.250 DampE=0.500 DampFc=0.2500 IDamp=-1.
 Damping current iteration by 2.50D-01
 RMSDP=2.05D-03 MaxDP=1.98D-01              OVMax= 4.51D-01

 Cycle   2  Pass 0  IDiag  1:
 RMSU=  3.46D-04    CP:  9.82D-01
 E= -4405.24092955396     Delta-E=       -0.649065868121 Rises=F Damp=T
 DIIS: error= 1.14D-02 at cycle   2 NSaved=   2.
 NSaved= 2 IEnMin= 2 EnMin= -4405.24092955396     IErMin= 2 ErrMin= 1.14D-02
 ErrMax= 1.14D-02 EMaxC= 1.00D-01 BMatC= 1.84D+00 BMatP= 6.58D+00
 IDIUse=3 WtCom= 8.86D-01 WtEn= 1.14D-01
 Coeff-Com: -0.924D+00 0.192D+01
 Coeff-En:   0.000D+00 0.100D+01
 Coeff:     -0.818D+00 0.182D+01
 Gap=     0.150 Goal=   None    Shift=    0.000
 Gap=     0.004 Goal=   None    Shift=    0.000
 RMSDP=1.04D-03 MaxDP=1.37D-01 DE=-6.49D-01 OVMax= 5.96D-01

 Cycle   3  Pass 0  IDiag  1:
 RMSU=  4.19D-04    CP:  9.39D-01  2.50D+00
 E= -4406.25861660606     Delta-E=       -1.017687052099 Rises=F Damp=F
 DIIS: error= 6.27D-03 at cycle   3 NSaved=   3.
 NSaved= 3 IEnMin= 3 EnMin= -4406.25861660606     IErMin= 3 ErrMin= 6.27D-03
 ErrMax= 6.27D-03 EMaxC= 1.00D-01 BMatC= 5.91D-01 BMatP= 1.84D+00
 IDIUse=3 WtCom= 9.37D-01 WtEn= 6.27D-02
 Coeff-Com: -0.547D+00 0.109D+01 0.453D+00
 Coeff-En:   0.000D+00 0.000D+00 0.100D+01
 Coeff:     -0.513D+00 0.103D+01 0.487D+00
 Gap=     0.172 Goal=   None    Shift=    0.000
 Gap=    -0.004 Goal=   None    Shift=    0.000
 RMSDP=5.51D-04 MaxDP=9.56D-02 DE=-1.02D+00 OVMax= 7.54D-01

 Cycle   4  Pass 0  IDiag  1:
 RMSU=  2.22D-04    CP:  9.41D-01  2.54D+00  3.96D-01
 E= -4406.32874977291     Delta-E=       -0.070133166850 Rises=F Damp=F
 DIIS: error= 4.73D-03 at cycle   4 NSaved=   4.
 NSaved= 4 IEnMin= 4 EnMin= -4406.32874977291     IErMin= 4 ErrMin= 4.73D-03
 ErrMax= 4.73D-03 EMaxC= 1.00D-01 BMatC= 3.14D-01 BMatP= 5.91D-01
 IDIUse=3 WtCom= 9.53D-01 WtEn= 4.73D-02
 Coeff-Com: -0.224D+00 0.447D+00 0.388D+00 0.390D+00
 Coeff-En:   0.000D+00 0.000D+00 0.398D+00 0.602D+00
 Coeff:     -0.214D+00 0.425D+00 0.388D+00 0.400D+00
 Gap=     0.148 Goal=   None    Shift=    0.000
 Gap=     0.001 Goal=   None    Shift=    0.000
 RMSDP=4.11D-04 MaxDP=5.38D-02 DE=-7.01D-02 OVMax= 7.18D-01

 Cycle   5  Pass 0  IDiag  1:
 RMSU=  1.07D-04    CP:  9.42D-01  2.43D+00  7.15D-01  2.23D-01
 E= -4406.39886824044     Delta-E=       -0.070118467534 Rises=F Damp=F
 DIIS: error= 2.53D-03 at cycle   5 NSaved=   5.
 NSaved= 5 IEnMin= 5 EnMin= -4406.39886824044     IErMin= 5 ErrMin= 2.53D-03
 ErrMax= 2.53D-03 EMaxC= 1.00D-01 BMatC= 7.24D-02 BMatP= 3.14D-01
 IDIUse=3 WtCom= 9.75D-01 WtEn= 2.53D-02
 Coeff-Com: -0.784D-01 0.157D+00 0.241D+00 0.332D+00 0.348D+00
 Coeff-En:   0.000D+00 0.000D+00 0.000D+00 0.242D+00 0.758D+00
 Coeff:     -0.765D-01 0.153D+00 0.235D+00 0.330D+00 0.358D+00
 Gap=     0.140 Goal=   None    Shift=    0.000
 Gap=     0.005 Goal=   None    Shift=    0.000
 RMSDP=2.90D-04 MaxDP=3.48D-02 DE=-7.01D-02 OVMax= 5.85D-01

 Cycle   6  Pass 0  IDiag  1:
 RMSU=  4.94D-05    CP:  9.42D-01  2.48D+00  5.61D-01  6.31D-01 -2.12D-02
 E= -4406.41472001925     Delta-E=       -0.015851778811 Rises=F Damp=F
 DIIS: error= 1.96D-03 at cycle   6 NSaved=   6.
 NSaved= 6 IEnMin= 6 EnMin= -4406.41472001925     IErMin= 6 ErrMin= 1.96D-03
 ErrMax= 1.96D-03 EMaxC= 1.00D-01 BMatC= 2.31D-02 BMatP= 7.24D-02
 IDIUse=3 WtCom= 9.80D-01 WtEn= 1.96D-02
 Coeff-Com: -0.181D-01 0.375D-01 0.113D+00 0.167D+00 0.331D+00 0.369D+00
 Coeff-En:   0.000D+00 0.000D+00 0.000D+00 0.000D+00 0.318D+00 0.682D+00
 Coeff:     -0.178D-01 0.368D-01 0.111D+00 0.164D+00 0.330D+00 0.376D+00
 Gap=     0.134 Goal=   None    Shift=    0.000
 Gap=     0.010 Goal=   None    Shift=    0.000
 RMSDP=1.36D-04 MaxDP=1.28D-02 DE=-1.59D-02 OVMax= 2.73D-01

 Cycle   7  Pass 0  IDiag  1:
 RMSU=  2.91D-05    CP:  9.42D-01  2.47D+00  6.29D-01  4.41D-01  4.11D-01
                    CP:  6.62D-01
 E= -4406.42189600766     Delta-E=       -0.007175988409 Rises=F Damp=F
 DIIS: error= 4.88D-04 at cycle   7 NSaved=   7.
 NSaved= 7 IEnMin= 7 EnMin= -4406.42189600766     IErMin= 7 ErrMin= 4.88D-04
 ErrMax= 4.88D-04 EMaxC= 1.00D-01 BMatC= 2.46D-03 BMatP= 2.31D-02
 IDIUse=3 WtCom= 9.95D-01 WtEn= 4.88D-03
 Coeff-Com:  0.488D-02-0.872D-02 0.219D-01 0.304D-01 0.158D+00 0.287D+00
 Coeff-Com:  0.507D+00
 Coeff-En:   0.000D+00 0.000D+00 0.000D+00 0.000D+00 0.000D+00 0.963D-01
 Coeff-En:   0.904D+00
 Coeff:      0.486D-02-0.868D-02 0.218D-01 0.302D-01 0.157D+00 0.286D+00
 Coeff:      0.509D+00
 Gap=     0.132 Goal=   None    Shift=    0.000
 Gap=     0.013 Goal=   None    Shift=    0.000
 RMSDP=3.74D-05 MaxDP=4.48D-03 DE=-7.18D-03 OVMax= 6.04D-02

 Cycle   8  Pass 0  IDiag  1:
 RMSU=  9.43D-06    CP:  9.42D-01  2.47D+00  6.19D-01  4.75D-01  3.46D-01
                    CP:  8.10D-01  6.59D-01
 E= -4406.42247066031     Delta-E=       -0.000574652651 Rises=F Damp=F
 DIIS: error= 2.19D-04 at cycle   8 NSaved=   8.
 NSaved= 8 IEnMin= 8 EnMin= -4406.42247066031     IErMin= 8 ErrMin= 2.19D-04
 ErrMax= 2.19D-04 EMaxC= 1.00D-01 BMatC= 6.99D-04 BMatP= 2.46D-03
 IDIUse=3 WtCom= 9.98D-01 WtEn= 2.19D-03
 Coeff-Com:  0.462D-02-0.858D-02 0.414D-02 0.560D-03 0.777D-01 0.165D+00
 Coeff-Com:  0.396D+00 0.361D+00
 Coeff-En:   0.000D+00 0.000D+00 0.000D+00 0.000D+00 0.000D+00 0.000D+00
 Coeff-En:   0.226D+00 0.774D+00
 Coeff:      0.461D-02-0.856D-02 0.413D-02 0.559D-03 0.775D-01 0.164D+00
 Coeff:      0.396D+00 0.362D+00
 Gap=     0.132 Goal=   None    Shift=    0.000
 Gap=     0.014 Goal=   None    Shift=    0.000
 RMSDP=1.35D-05 MaxDP=1.76D-03 DE=-5.75D-04 OVMax= 1.80D-02

 Cycle   9  Pass 0  IDiag  1:
 RMSU=  4.56D-06    CP:  9.42D-01  2.47D+00  6.21D-01  4.70D-01  3.53D-01
                    CP:  7.90D-01  7.52D-01  4.66D-01
 E= -4406.42264367334     Delta-E=       -0.000173013032 Rises=F Damp=F
 DIIS: error= 1.21D-04 at cycle   9 NSaved=   9.
 NSaved= 9 IEnMin= 9 EnMin= -4406.42264367334     IErMin= 9 ErrMin= 1.21D-04
 ErrMax= 1.21D-04 EMaxC= 1.00D-01 BMatC= 7.56D-05 BMatP= 6.99D-04
 IDIUse=3 WtCom= 9.99D-01 WtEn= 1.21D-03
 Coeff-Com:  0.205D-02-0.376D-02 0.298D-03-0.494D-02 0.287D-01 0.588D-01
 Coeff-Com:  0.195D+00 0.245D+00 0.479D+00
 Coeff-En:   0.000D+00 0.000D+00 0.000D+00 0.000D+00 0.000D+00 0.000D+00
 Coeff-En:   0.000D+00 0.913D-01 0.909D+00
 Coeff:      0.204D-02-0.376D-02 0.298D-03-0.493D-02 0.287D-01 0.588D-01
 Coeff:      0.195D+00 0.245D+00 0.479D+00
 Gap=     0.132 Goal=   None    Shift=    0.000
 Gap=     0.015 Goal=   None    Shift=    0.000
 RMSDP=6.58D-06 MaxDP=9.24D-04 DE=-1.73D-04 OVMax= 1.08D-02

 Initial convergence to 1.0D-05 achieved.  Increase integral accuracy.
 Cycle  10  Pass 1  IDiag  1:
 E= -4406.42201724913     Delta-E=        0.000626424218 Rises=F Damp=F
 DIIS: error= 3.61D-04 at cycle   1 NSaved=   1.
 NSaved= 1 IEnMin= 1 EnMin= -4406.42201724913     IErMin= 1 ErrMin= 3.61D-04
 ErrMax= 3.61D-04 EMaxC= 1.00D-01 BMatC= 5.55D-04 BMatP= 5.55D-04
 IDIUse=3 WtCom= 9.96D-01 WtEn= 3.61D-03
 Coeff-Com:  0.100D+01
 Coeff-En:   0.100D+01
 Coeff:      0.100D+01
 Gap=     0.131 Goal=   None    Shift=    0.000
 Gap=     0.015 Goal=   None    Shift=    0.000
 RMSDP=6.58D-06 MaxDP=9.24D-04 DE= 6.26D-04 OVMax= 1.98D-02

 Cycle  11  Pass 1  IDiag  1:
 RMSU=  1.20D-04    CP:  9.99D-01
 E= -4406.42204100149     Delta-E=       -0.000023752367 Rises=F Damp=F
 DIIS: error= 1.90D-04 at cycle   2 NSaved=   2.
 NSaved= 2 IEnMin= 2 EnMin= -4406.42204100149     IErMin= 2 ErrMin= 1.90D-04
 ErrMax= 1.90D-04 EMaxC= 1.00D-01 BMatC= 3.23D-04 BMatP= 5.55D-04
 IDIUse=3 WtCom= 9.98D-01 WtEn= 1.90D-03
 Coeff-Com:  0.391D+00 0.609D+00
 Coeff-En:   0.410D+00 0.590D+00
 Coeff:      0.391D+00 0.609D+00
 Gap=     0.133 Goal=   None    Shift=    0.000
 Gap=     0.015 Goal=   None    Shift=    0.000
 RMSDP=3.34D-05 MaxDP=3.96D-03 DE=-2.38D-05 OVMax= 6.20D-02

 Cycle  12  Pass 1  IDiag  1:
 RMSU=  9.72D-06    CP:  9.99D-01  9.91D-01
 E= -4406.42174631716     Delta-E=        0.000294684331 Rises=F Damp=F
 DIIS: error= 4.29D-04 at cycle   3 NSaved=   3.
 NSaved= 3 IEnMin= 2 EnMin= -4406.42204100149     IErMin= 2 ErrMin= 1.90D-04
 ErrMax= 4.29D-04 EMaxC= 1.00D-01 BMatC= 1.25D-03 BMatP= 3.23D-04
 IDIUse=3 WtCom= 3.26D-01 WtEn= 6.74D-01
 Coeff-Com:  0.143D-01 0.656D+00 0.329D+00
 Coeff-En:   0.000D+00 0.705D+00 0.295D+00
 Coeff:      0.465D-02 0.689D+00 0.307D+00
 Gap=     0.133 Goal=   None    Shift=    0.000
 Gap=     0.015 Goal=   None    Shift=    0.000
 RMSDP=2.12D-05 MaxDP=2.19D-03 DE= 2.95D-04 OVMax= 4.18D-02

 Cycle  13  Pass 1  IDiag  1:
 RMSU=  2.06D-06    CP:  9.99D-01  1.00D+00  3.83D-01
 E= -4406.42212499770     Delta-E=       -0.000378680536 Rises=F Damp=F
 DIIS: error= 1.05D-04 at cycle   4 NSaved=   4.
 NSaved= 4 IEnMin= 4 EnMin= -4406.42212499770     IErMin= 4 ErrMin= 1.05D-04
 ErrMax= 1.05D-04 EMaxC= 1.00D-01 BMatC= 7.22D-05 BMatP= 3.23D-04
 IDIUse=3 WtCom= 9.99D-01 WtEn= 1.05D-03
 Coeff-Com: -0.387D-02 0.512D+00 0.220D+00 0.272D+00
 Coeff-En:   0.000D+00 0.213D+00 0.000D+00 0.787D+00
 Coeff:     -0.387D-02 0.511D+00 0.220D+00 0.273D+00
 Gap=     0.131 Goal=   None    Shift=    0.000
 Gap=     0.015 Goal=   None    Shift=    0.000
 RMSDP=4.22D-06 MaxDP=6.43D-04 DE=-3.79D-04 OVMax= 6.43D-03

 Cycle  14  Pass 1  IDiag  1:
 RMSU=  8.27D-07    CP:  9.99D-01  1.00D+00  3.68D-01  1.22D-01
 E= -4406.42214581131     Delta-E=       -0.000020813608 Rises=F Damp=F
 DIIS: error= 1.96D-05 at cycle   5 NSaved=   5.
 NSaved= 5 IEnMin= 5 EnMin= -4406.42214581131     IErMin= 5 ErrMin= 1.96D-05
 ErrMax= 1.96D-05 EMaxC= 1.00D-01 BMatC= 3.73D-06 BMatP= 7.22D-05
 IDIUse=1 WtCom= 1.00D+00 WtEn= 0.00D+00
 Coeff-Com: -0.371D-02 0.333D+00 0.130D+00 0.220D+00 0.320D+00
 Coeff:     -0.371D-02 0.333D+00 0.130D+00 0.220D+00 0.320D+00
 Gap=     0.131 Goal=   None    Shift=    0.000
 Gap=     0.015 Goal=   None    Shift=    0.000
 RMSDP=8.12D-07 MaxDP=1.08D-04 DE=-2.08D-05 OVMax= 1.09D-03

 Cycle  15  Pass 1  IDiag  1:
 RMSU=  3.34D-07    CP:  9.99D-01  1.00D+00  3.63D-01  2.45D-01  8.14D-01
 E= -4406.42214678756     Delta-E=       -0.000000976255 Rises=F Damp=F
 DIIS: error= 9.28D-06 at cycle   6 NSaved=   6.
 NSaved= 6 IEnMin= 6 EnMin= -4406.42214678756     IErMin= 6 ErrMin= 9.28D-06
 ErrMax= 9.28D-06 EMaxC= 1.00D-01 BMatC= 8.02D-07 BMatP= 3.73D-06
 IDIUse=1 WtCom= 1.00D+00 WtEn= 0.00D+00
 Coeff-Com: -0.150D-02 0.967D-01 0.183D-01 0.104D+00 0.184D+00 0.599D+00
 Coeff:     -0.150D-02 0.967D-01 0.183D-01 0.104D+00 0.184D+00 0.599D+00
 Gap=     0.131 Goal=   None    Shift=    0.000
 Gap=     0.015 Goal=   None    Shift=    0.000
 RMSDP=3.52D-07 MaxDP=4.43D-05 DE=-9.76D-07 OVMax= 2.07D-04

 Cycle  16  Pass 1  IDiag  1:
 RMSU=  1.71D-07    CP:  9.99D-01  1.00D+00  3.64D-01  2.46D-01  1.00D+00
                    CP:  9.20D-01
 E= -4406.42214697517     Delta-E=       -0.000000187603 Rises=F Damp=F
 DIIS: error= 6.16D-06 at cycle   7 NSaved=   7.
 NSaved= 7 IEnMin= 7 EnMin= -4406.42214697517     IErMin= 7 ErrMin= 6.16D-06
 ErrMax= 6.16D-06 EMaxC= 1.00D-01 BMatC= 4.29D-07 BMatP= 8.02D-07
 IDIUse=1 WtCom= 1.00D+00 WtEn= 0.00D+00
 Coeff-Com:  0.171D-02-0.183D+00-0.105D+00-0.585D-01-0.110D+00 0.581D+00
 Coeff-Com:  0.875D+00
 Coeff:      0.171D-02-0.183D+00-0.105D+00-0.585D-01-0.110D+00 0.581D+00
 Coeff:      0.875D+00
 Gap=     0.131 Goal=   None    Shift=    0.000
 Gap=     0.015 Goal=   None    Shift=    0.000
 RMSDP=5.15D-07 MaxDP=6.15D-05 DE=-1.88D-07 OVMax= 4.80D-04

 Cycle  17  Pass 1  IDiag  1:
 RMSU=  1.39D-07    CP:  9.99D-01  1.00D+00  3.67D-01  2.74D-01  1.26D+00
                    CP:  1.48D+00  1.36D+00
 E= -4406.42214715836     Delta-E=       -0.000000183190 Rises=F Damp=F
 DIIS: error= 2.69D-06 at cycle   8 NSaved=   8.
 NSaved= 8 IEnMin= 8 EnMin= -4406.42214715836     IErMin= 8 ErrMin= 2.69D-06
 ErrMax= 2.69D-06 EMaxC= 1.00D-01 BMatC= 7.68D-08 BMatP= 4.29D-07
 IDIUse=1 WtCom= 1.00D+00 WtEn= 0.00D+00
 Coeff-Com:  0.140D-02-0.138D+00-0.748D-01-0.547D-01-0.115D+00 0.233D+00
 Coeff-Com:  0.594D+00 0.554D+00
 Coeff:      0.140D-02-0.138D+00-0.748D-01-0.547D-01-0.115D+00 0.233D+00
 Coeff:      0.594D+00 0.554D+00
 Gap=     0.131 Goal=   None    Shift=    0.000
 Gap=     0.015 Goal=   None    Shift=    0.000
 RMSDP=1.80D-07 MaxDP=2.19D-05 DE=-1.83D-07 OVMax= 1.68D-04

 Cycle  18  Pass 1  IDiag  1:
 RMSU=  6.14D-08    CP:  9.99D-01  1.00D+00  3.69D-01  2.72D-01  1.35D+00
                    CP:  1.59D+00  1.69D+00  1.02D+00
 E= -4406.42214718741     Delta-E=       -0.000000029053 Rises=F Damp=F
 DIIS: error= 1.19D-06 at cycle   9 NSaved=   9.
 NSaved= 9 IEnMin= 9 EnMin= -4406.42214718741     IErMin= 9 ErrMin= 1.19D-06
 ErrMax= 1.19D-06 EMaxC= 1.00D-01 BMatC= 1.69D-08 BMatP= 7.68D-08
 IDIUse=1 WtCom= 1.00D+00 WtEn= 0.00D+00
 Coeff-Com:  0.420D-03-0.372D-01-0.194D-01-0.177D-01-0.517D-01-0.414D-01
 Coeff-Com:  0.136D+00 0.405D+00 0.626D+00
 Coeff:      0.420D-03-0.372D-01-0.194D-01-0.177D-01-0.517D-01-0.414D-01
 Coeff:      0.136D+00 0.405D+00 0.626D+00
 Gap=     0.131 Goal=   None    Shift=    0.000
 Gap=     0.015 Goal=   None    Shift=    0.000
[...]
     2  C    0.000000   0.000000   0.000000
     3  C    0.000000   0.000000   0.000000
     4  C    0.000000   0.000000   0.000000
     5  C    0.000000   0.000000   0.000000
     6  C    0.000000   0.000000   0.000002
     7  C    0.000000   0.000000   0.000000
     8  C    0.000000   0.000000   0.000000
     9  C    0.000000   0.000000   0.000000
    10  C    0.000000   0.000000  -0.000001
    11  C    0.000003   0.000002  -0.000137
    12  C    0.000005   0.000001   0.000022
    13  C   -0.000001   0.000000   0.000002
    14  C    0.000000   0.000000   0.000000
    15  C    0.000000   0.000000   0.000000
    16  C    0.000000   0.000000   0.000000
    17  C    0.000000   0.000000   0.000000
    18  C    0.000000   0.000000   0.000000
    19  C    0.000000   0.000000   0.000000
    20  C    0.000000   0.000000   0.000000
    21  C    0.000000   0.000000   0.000000
    22  C    0.000000   0.000000   0.000000
    23  C    0.000000   0.000000   0.000000
    24  C    0.000000   0.000000   0.000000
    25  C    0.000000   0.000000   0.000000
    26  N   -0.000019  -0.000014  -0.000148
    27  N    0.000000   0.000000   0.000000
    28  N    0.000000   0.000000   0.000000
    29  N    0.000000   0.000000   0.000000
    30  C    0.000000   0.000000   0.000000
    31  C    0.000000   0.000000   0.000000
    32  C    0.000000   0.000000   0.000000
    33  C    0.000000   0.000000   0.000000
    34  C    0.000002   0.000010  -0.000002
    35  C    0.000014  -0.000003  -0.000067
    36  C    0.000000   0.000000   0.000000
    37  C    0.000000   0.000000   0.000000
    38  C    0.000000   0.000000   0.000000
    39  C    0.000000   0.000000   0.000000
    40  C    0.000000   0.000000   0.000000
    41  C    0.000000   0.000000   0.000000
    42  C    0.000000   0.000000   0.000000
    43  C    0.000000   0.000002  -0.000002
    44  C    0.000000   0.000000   0.000001
    45  C    0.000000  -0.000001   0.000000
    46  C    0.000000  -0.000003  -0.000006
    47  C    0.000002   0.000013   0.000022
    48  C    0.000123   0.000029   0.000082
    49  C   -0.000040  -0.000002   0.000000
    50  C   -0.000003   0.000000  -0.000001
    51  C    0.000000   0.000000   0.000001
    52  C   -0.000002   0.000000  -0.000004
    53  C    0.000000   0.000000   0.000000
    54  C    0.000000   0.000000   0.000000
    55  C    0.000000   0.000000   0.000000
    56  C    0.000000  -0.000001   0.000000
    57  C    0.000000   0.000000   0.000000
    58  C    0.000000   0.000000   0.000000
    59  C    0.000000   0.000000   0.000000
    60  C    0.000000   0.000000   0.000000
    61  C    0.000000   0.000000   0.000000
    62  C    0.000000   0.000000   0.000000
    63  C    0.000000   0.000000   0.000000
    64  C    0.000000   0.000000   0.000000
    65  C    0.000000   0.000000   0.000000
    66  C    0.000000   0.000000   0.000000
    67  C    0.000000   0.000000   0.000000
    68  C    0.000000   0.000000   0.000000
    69  C    0.000000   0.000000   0.000000
    70  C    0.000000   0.000000   0.000000
    71  C    0.000000   0.000000   0.000000
    72  C    0.000000   0.000000   0.000000
    73  C    0.000000   0.000000   0.000000
    74  C    0.000000   0.000000   0.000000
    75  C    0.000000   0.000000   0.000000
    76  C    0.000000   0.000000   0.000000
    77  C    0.000000   0.000000   0.000000
    78  H    0.000000   0.000000   0.000000
    79  H    0.000000   0.000000   0.000000
    80  H    0.000000   0.000000   0.000000
    81  H    0.000000   0.000000   0.000000
    82  H    0.000000   0.000000   0.000000
    83  H    0.000000   0.000000   0.000000
    84  H    0.000000   0.000000   0.000000
    85  H    0.000000   0.000000   0.000000
    86  H    0.000000   0.000000   0.000000
    87  H    0.000002   0.000000   0.000013
    88  H    0.000000   0.000000   0.000000
    89  H    0.000000   0.000000   0.000000
    90  O    0.000000   0.000000   0.000000
    91  C    0.000000   0.000000   0.000000
    92  O    0.000000   0.000000   0.000000
    93  C    0.000000   0.000000   0.000000
    94  O    0.000000   0.000000   0.000000
    95  O    0.000000   0.000000   0.000000
    96  C    0.000000   0.000000   0.000000
    97  C    0.000000   0.000000   0.000000
    98  H    0.000000   0.000000   0.000000
    99  H    0.000000   0.000000   0.000000
   100  H    0.000000   0.000000   0.000000
   101  H    0.000000   0.000000   0.000000
   102  H    0.000000   0.000000   0.000000
   103  H    0.000000   0.000000   0.000000
   104  H    0.000000  -0.000001   0.000008
   105  H    0.000000   0.000000   0.000000
   106  H    0.000000   0.000000   0.000000
   107  H    0.000000   0.000000   0.000000
   108  H    0.000000   0.000000   0.000000
   109  H    0.000000   0.000000   0.000000
   110  H    0.000000   0.000000   0.000000
   111  H    0.000000   0.000000   0.000000
   112  H    0.000000   0.000000   0.000000
   113  H    0.000000   0.000000   0.000000
   114  H    0.000000   0.000000   0.000000
   115  H    0.000000   0.000000   0.000000
   116  H    0.000000   0.000000   0.000000
   117  H    0.000000   0.000000   0.000000
   118  H    0.000000   0.000000   0.000000
   119  H    0.000000   0.000000   0.000000
   120  H    0.000000   0.000000   0.000000
   121  H    0.000000   0.000000   0.000000
   122  H    0.000000   0.000000   0.000000
   123  H    0.000000   0.000000   0.000000
   124  H    0.000000   0.000000   0.000000
   125  H    0.000000   0.000000   0.000000
   126  O    0.000000   0.000000   0.000000
   127  H    0.000000   0.000000   0.000000
   128  H    0.000000   0.000000   0.000000
   129  H    0.000000   0.000000   0.000000
   130  H    0.000000   0.000000   0.000000
   131  H    0.000000   0.000000   0.000000
   132  O    0.000000   0.000000   0.000000
   133  H    0.000000   0.000000   0.000000
   134  O    0.000000   0.000000   0.000000
   135  H    0.000000  -0.000001   0.000001
   136  H    0.000000   0.000000   0.000000
   137  H    0.000000   0.000000   0.000000
   138  H    0.000000   0.000000   0.000000
   139  H    0.000003   0.000001   0.000001
   140  O   -0.000017   0.000017   0.000009
   141  O    0.000000   0.000000   0.000000
   142  C    0.000000   0.000000   0.000000
   143  O    0.000000   0.000000   0.000000
   144  C    0.000000   0.000000   0.000000
   145  O    0.000000   0.000000   0.000000
   146  C    0.000000   0.000000   0.000000
   147  O    0.000000   0.000000   0.000000
   148  C    0.000000   0.000000   0.000000
   149  H    0.000000   0.000000   0.000000
   150  H    0.000000   0.000000   0.000000
   151  H    0.000000   0.000000   0.000000
   152  H    0.000000   0.000000   0.000000
   153  H    0.000000   0.000000   0.000000
   154  H    0.000000   0.000000   0.000000
   155  H    0.000000   0.000000   0.000000
   156  H    0.000000   0.000000   0.000000
   157  H    0.000000   0.000000   0.000000
   158  H    0.000000   0.000000   0.000000
   159  H    0.000000   0.000000   0.000000
   160  H   -0.000001   0.000000   0.000000
   161  C    0.000000   0.000000   0.000000
   162  C    0.000000   0.000000   0.000000
   163  H    0.000000   0.000000   0.000000
   164  C   -0.000064  -0.000024   0.000107
   165  C    0.000000   0.000000   0.000000
   166  H    0.000000   0.000000   0.000000
   167  H    0.000000   0.000000   0.000000
   168  H    0.000000   0.000000   0.000000
   169  H    0.000000   0.000000   0.000000
   170  H    0.000000   0.000000   0.000000
   171  H    0.000000   0.000000   0.000000
   172  H    0.000000   0.000000   0.000000
   173  H    0.000000   0.000000   0.000000
   174  H    0.000000   0.000000   0.000000
   175  H   -0.000002   0.000018   0.000001
   176  H    0.000018  -0.000047   0.000005
   177  H    0.000001   0.000005  -0.000118
 Mulliken atomic spin densities:
              1
     1  C   -0.005171
     2  C    0.002161
     3  C    0.041002
     4  C    0.026533
     5  C    0.009906
     6  C    0.006296
     7  C    0.028653
     8  C    0.030462
     9  C    0.005568
    10  C    0.004573
    11  C    0.011582
    12  C    0.022373
    13  C   -0.003125
    14  C    0.000257
    15  C    0.020416
    16  C    0.016241
    17  C    0.001801
    18  C    0.010656
    19  C    0.010747
    20  C    0.031661
    21  C   -0.007586
    22  C   -0.004322
    23  C    0.023578
    24  C    0.011592
    25  C    0.005618
    26  N    0.076011
    27  N    0.079728
    28  N    0.104334
    29  N    0.081184
    30  C   -0.001070
    31  C   -0.001020
    32  C   -0.002362
    33  C   -0.001498
    34  C   -0.001649
    35  C   -0.001981
    36  C   -0.001164
    37  C   -0.003087
    38  C    0.019113
    39  C   -0.004121
    40  C    0.021669
    41  C   -0.007054
    42  C    0.014999
    43  C    0.017348
    44  C   -0.004366
    45  C    0.019245
    46  C   -0.005796
    47  C    0.013628
    48  C    0.012965
    49  C   -0.003851
    50  C    0.013242
    51  C   -0.003679
    52  C    0.009971
    53  C    0.013586
    54  C   -0.004555
    55  C    0.013561
    56  C   -0.003520
    57  C    0.010623
    58  C    0.014289
    59  C   -0.001288
    60  C    0.015765
    61  C   -0.006265
    62  C    0.012018
    63  C    0.025396
    64  C   -0.009191
    65  C    0.027667
    66  C   -0.005212
    67  C    0.018285
    68  C    0.015689
    69  C   -0.006980
    70  C    0.021611
    71  C   -0.004923
    72  C    0.019740
    73  C    0.011270
    74  C   -0.001518
    75  C    0.012228
    76  C   -0.004838
    77  C    0.009449
    78  H   -0.000322
    79  H   -0.000551
    80  H   -0.001361
    81  H    0.000080
    82  H   -0.000209
    83  H   -0.000929
    84  H   -0.000027
    85  H   -0.001144
    86  H   -0.000097
    87  H   -0.001016
    88  H   -0.000183
    89  H   -0.000280
    90  O    0.009746
    91  C   -0.000794
    92  O    0.012917
    93  C   -0.001035
    94  O    0.010077
    95  O    0.008888
    96  C   -0.000722
    97  C   -0.000818
    98  H    0.000285
    99  H   -0.000671
   100  H   -0.000782
   101  H    0.000165
   102  H   -0.000855
   103  H    0.000227
   104  H   -0.000682
   105  H   -0.000879
   106  H    0.000190
   107  H    0.000272
   108  H   -0.000846
   109  H    0.000377
   110  H   -0.001158
   111  H    0.000214
   112  H   -0.000837
   113  H    0.000940
   114  H    0.000970
   115  H   -0.000018
   116  H    0.000654
   117  H    0.000665
   118  H   -0.000014
   119  H   -0.000016
   120  H    0.000744
   121  H    0.000753
   122  H    0.000719
   123  H    0.000736
   124  H   -0.000016
   125  H    0.000266
   126  O    0.002568
   127  H    0.000138
   128  H   -0.000827
   129  H   -0.000621
   130  H    0.000175
   131  H    0.000206
   132  O    0.001994
   133  H    0.000213
   134  O    0.000688
   135  H    0.000220
   136  H   -0.000530
   137  H   -0.000475
   138  H    0.000258
   139  H    0.000191
   140  O    0.000666
   141  O    0.006880
   142  C   -0.000553
   143  O    0.006026
   144  C   -0.000490
   145  O    0.005959
   146  C   -0.000485
   147  O    0.005241
   148  C   -0.000439
   149  H   -0.000007
   150  H    0.000444
   151  H    0.000510
   152  H   -0.000008
   153  H    0.000408
   154  H    0.000393
   155  H   -0.000010
   156  H    0.000449
   157  H    0.000437
   158  H   -0.000010
   159  H    0.000452
   160  H    0.000441
   161  C   -0.000149
   162  C    0.000398
   163  H    0.000189
   164  C    0.000282
   165  C   -0.000185
   166  H   -0.000006
   167  H    0.000227
   168  H    0.000120
   169  H   -0.000003
   170  H    0.000182
   171  H    0.000092
   172  H   -0.000006
   173  H   -0.000211
   174  H    0.000033
   175  H    0.000027
   176  H    0.000001
   177  H   -0.000209
 Sum of Mulliken atomic spin densities =   1.00000
 Electronic spatial extent (au):  <R**2>=         123367.8368
 Charge=              1.0000 electrons
 Dipole moment (field-independent basis, Debye):
    X=             -0.9155    Y=              0.3968    Z=             -1.3848  Tot=              1.7068
 Quadrupole moment (field-independent basis, Debye-Ang):
   XX=           -379.1936   YY=           -428.2914   ZZ=           -479.1087
   XY=              2.7294   XZ=             11.0812   YZ=             -0.8509
 Traceless Quadrupole moment (field-independent basis, Debye-Ang):
   XX=             49.6710   YY=              0.5732   ZZ=            -50.2442
   XY=              2.7294   XZ=             11.0812   YZ=             -0.8509
 Octapole moment (field-independent basis, Debye-Ang**2):
  XXX=            159.8709  YYY=            158.7201  ZZZ=             15.6934  XYY=           -247.9098
  XXY=            -21.5692  XXZ=            -90.7510  XZZ=             75.6151  YZZ=            132.5435
  YYZ=              1.6914  XYZ=           -159.2998
 Hexadecapole moment (field-independent basis, Debye-Ang**3):
 XXXX=         -57471.5069 YYYY=         -58849.8711 ZZZZ=         -23919.9719 XXXY=            801.0808
 XXXZ=            413.8180 YYYX=           -918.8079 YYYZ=           1238.0580 ZZZX=             -0.4877
 ZZZY=           -194.8289 XXYY=         -18595.2067 XXZZ=         -11424.7088 YYZZ=         -12333.3140
 XXYZ=           -641.1917 YYXZ=           -419.5930 ZZXY=            -65.8018
 N-N= 1.925286732240D+04 E-N=-7.303800722962D+04  KE= 6.565909993606D+03
 Leave Link  601 at Tue Jan 27 13:43:43 2015, MaxMem= 2147483648 cpu:     124.1
 (Enter /opt/g09/l9999.exe)
 1\1\GINC-CHPC-SCANDIUM\SP\UB3LYP\CC-pVDZ\C85H76N4O12(1+,2)\JARVIST\27-
 Jan-2015\0\\#p sp B3LYP/cc-pVDZ\\Auto Spiro; and yes I said yes I will
  Yes.\\1,2\C,0,0.018671,-0.040829,0.127087\C,0,0.567933,-1.095786,1.09
 5021\C,0,0.381753,-0.686472,2.430244\C,0,-0.283059,0.61786,2.435947\C,
 0,-0.50554,1.019291,1.103837\C,0,1.057614,0.506655,-0.859427\C,0,0.631
 934,0.305198,-2.186787\C,0,-0.671467,-0.360807,-2.16914\C,0,-1.049998,
 -0.583014,-0.830734\C,0,2.267295,1.118325,-0.571558\C,0,3.083668,1.564
 717,-1.629862\C,0,2.656915,1.360832,-2.95791\C,0,1.446865,0.731122,-3.
 238215\C,0,-0.692107,1.451741,3.478945\C,0,-1.30588,2.669103,3.188501\
 C,0,-1.536547,3.066395,1.857722\C,0,-1.126049,2.221344,0.807172\C,0,1.
 177516,-2.300436,0.787225\C,0,1.609817,-3.143935,1.830767\C,0,1.418262
 ,-2.735771,3.166174\C,0,0.817698,-1.515163,3.466405\C,0,-1.521897,-0.7
 70423,-3.199212\C,0,-2.72314,-1.401755,-2.887536\C,0,-3.104331,-1.6233
 39,-1.549341\C,0,-2.250132,-1.198891,-0.51189\N,0,4.321891,2.209053,-1
 .37921\N,0,-2.165596,4.305122,1.559073\N,0,2.208054,-4.390875,1.528574
 \N,0,-4.341305,-2.253435,-1.265127\C,0,-5.488106,-1.905679,-2.033945\C
 ,0,1.683569,-5.169813,0.457672\C,0,-4.491068,-3.124264,-0.152919\C,0,3
 .205732,-4.955549,2.369252\C,0,4.52002,2.986779,-0.202098\C,0,5.442413
 ,1.912856,-2.20791\C,0,-3.146707,4.852298,2.433772\C,0,-1.618145,5.123
 731,0.52944\C,0,-3.13973,6.207472,2.777589\C,0,-4.123009,6.748435,3.60
 9961\C,0,-5.125177,5.926897,4.133534\C,0,-5.133979,4.564079,3.802461\C
 ,0,-4.167601,4.037776,2.957851\C,0,5.695531,2.877598,0.546052\C,0,5.91
 0354,3.669486,1.676962\C,0,4.930084,4.575221,2.09168\C,0,3.741672,4.68
 1211,1.354299\C,0,3.54358,3.907555,0.219891\C,0,6.22492,2.934564,-2.77
 9616\C,0,7.355891,2.627222,-3.544899\C,0,7.707589,1.29581,-3.780681\C,
 0,6.919404,0.268377,-3.241794\C,0,5.816492,0.581756,-2.461037\C,0,-2.4
 33144,5.704659,-0.460782\C,0,-1.886348,6.549529,-1.433635\C,0,-0.51314
 5,6.805132,-1.455446\C,0,0.314549,6.21055,-0.491621\C,0,-0.239685,5.39
 5524,0.484932\C,0,0.329523,-5.494231,0.401222\C,0,-0.217245,-6.239075,
 -0.648042\C,0,0.629316,-6.69484,-1.660888\C,0,1.999543,-6.39278,-1.625
 354\C,0,2.526702,-5.625146,-0.58917\C,0,4.245921,-4.169895,2.880133\C,
 0,5.230088,-4.719861,3.702669\C,0,5.204607,-6.085563,4.007752\C,0,4.17
 6721,-6.882153,3.487532\C,0,3.186892,-6.323421,2.689034\C,0,-3.485452,
 -4.052088,0.177395\C,0,-3.642128,-4.914292,1.252385\C,0,-4.816642,-4.8
 95855,2.019705\C,0,-5.826913,-3.987732,1.693911\C,0,-5.654154,-3.10550
 7,0.623182\C,0,-5.915363,-0.582852,-2.128355\C,0,-7.02666,-0.208561,-2
 .889871\C,0,-7.747549,-1.199535,-3.558642\C,0,-7.345353,-2.542143,-3.4
 77248\C,0,-6.219784,-2.897935,-2.737853\H,0,-2.537358,-1.353474,0.5232
 81\H,0,1.324077,-2.602741,-0.244759\H,0,1.738455,-3.390455,3.969618\H,
 0,0.676473,-1.228759,4.505758\H,0,-0.522103,1.171259,4.515483\H,0,-1.6
 09291,3.325948,3.996762\H,0,-1.250034,-0.616355,-4.240674\H,0,-3.38128
 6,-1.736944,-3.682654\H,0,1.142756,0.588888,-4.272362\H,0,3.288624,1.7
 0026,-3.772436\H,0,-1.29459,2.519649,-0.223128\H,0,2.588815,1.253783,0
 .455766\O,0,-4.872482,-5.799036,3.04807\C,0,-6.026922,-5.799055,3.8680
 08\O,0,6.124025,-6.730398,4.793175\C,0,7.185344,-5.966664,5.336464\O,0
 ,-6.129882,6.346108,4.96451\O,0,5.029078,5.394254,3.183977\C,0,6.20993
 9,5.323756,3.962825\C,0,-6.161399,7.713972,5.330206\H,0,-5.920294,3.93
 5737,4.209628\H,0,-4.193828,2.982834,2.703143\H,0,6.460673,2.172097,0.
 238474\H,0,-4.085186,7.80579,3.846647\H,0,-2.361854,6.854554,2.385404\
 H,0,2.990272,5.392829,1.683565\H,0,2.6216,4.008839,-0.344143\H,0,-6.44
 1301,-2.396137,0.387943\H,0,-6.745563,-3.942129,2.26822\H,0,-2.866965,
 -5.629276,1.51253\H,0,-2.577079,-4.091712,-0.415125\H,0,6.016698,-4.07
 6848,4.081484\H,0,4.287871,-3.114409,2.631058\H,0,4.16337,-7.939603,3.
 733732\H,0,2.389128,-6.950507,2.303639\H,0,6.8164,-5.16833,5.995249\H,
 0,7.809082,-5.519646,4.550036\H,0,7.789781,-6.663401,5.920978\H,0,7.10
 0057,5.586786,3.374876\H,0,6.350927,4.324294,4.396818\H,0,6.083427,6.0
 50215,4.768099\H,0,-7.027987,7.831173,5.984111\H,0,-6.279171,8.366042,
 4.4538\H,0,-5.25476,8.009608,5.875887\H,0,-6.933602,-6.034788,3.293521
 \H,0,-6.16588,-4.833252,4.372922\H,0,-5.864679,-6.576338,4.617529\H,0,
 2.617266,-6.755235,-2.437551\O,0,3.834778,-5.263337,-0.501132\H,0,-1.2
 77682,-6.460596,-0.650771\H,0,-0.316433,-5.139468,1.198977\H,0,-5.3520
 95,0.175653,-1.592831\H,0,-7.317096,0.833931,-2.93678\H,0,-7.925737,-3
 .276034,-4.0224\O,0,-5.747724,-4.170117,-2.638291\H,0,-2.567338,6.9781
 17,-2.158791\O,0,-3.79737,5.532396,-0.481557\H,0,1.379509,6.418644,-0.
 513086\H,0,0.398572,4.949879,1.242175\H,0,5.219937,-0.21401,-2.025186\
 H,0,7.202182,-0.762513,-3.4286\H,0,7.926175,3.457255,-3.943845\O,0,5.9
 63551,4.266504,-2.560628\O,0,0.230172,-7.440141,-2.734226\C,0,-1.14707
 3,-7.76069,-2.846208\O,0,8.785564,0.89892,-4.520513\C,0,9.616434,1.901
 896,-5.080811\O,0,0.111167,7.606364,-2.36916\C,0,-0.68528,8.237791,-3.
 357816\O,0,-8.857882,-0.975807,-4.323503\C,0,-9.321814,0.358345,-4.450
 077\H,0,-1.245795,-8.337891,-3.767683\H,0,-1.76733,-6.857298,-2.914269
 \H,0,-1.490766,-8.369253,-1.999155\H,0,-10.201994,0.309851,-5.094027\H
 ,0,-8.567025,1.006126,-4.915514\H,0,-9.606965,0.780976,-3.477472\H,0,0
 .002861,8.829026,-3.965055\H,0,-1.435575,8.902123,-2.908616\H,0,-1.193
 743,7.50373,-3.997228\H,0,10.409047,1.37238,-5.612958\H,0,10.062379,2.
 537658,-4.304324\H,0,9.064968,2.534929,-5.788942\C,0,-6.463969,-5.2087
 45,-3.285791\C,0,-4.24861,4.221527,-0.826962\H,0,6.838817,3.559754,2.2
 25886\C,0,4.788037,4.777477,-3.192016\C,0,4.734458,-5.730092,-1.493255
 \H,0,5.714487,-5.342006,-1.210393\H,0,4.467313,-5.354201,-2.489754\H,0
 ,4.770771,-6.82691,-1.519214\H,0,-5.923899,-6.129137,-3.056824\H,0,-6.
 490852,-5.062976,-4.373877\H,0,-7.491365,-5.286473,-2.907155\H,0,-5.33
 9942,4.263513,-0.805384\H,0,-3.899104,3.469656,-0.112248\H,0,-3.912531
 ,3.948363,-1.836472\H,0,4.866285,4.692478,-4.284623\H,0,4.728907,5.831
 601,-2.912867\H,0,3.885057,4.260764,-2.85156\\Version=EM64L-G09RevA.02
 \State=2-A\HF=-4406.4221472\S2=0.754832\S2-1=0.\S2A=0.750022\RMSD=3.65
 0e-09\Dipole=-0.3601981,0.1561198,-0.5448049\Quadrupole=36.9291452,0.4
 261572,-37.3553024,2.0292229,8.2386225,-0.6326495\PG=C01 [X(C85H76N4O1
 2)]\\@


 THE SECRET OF SUCCESS IN LIFE IS TO EAT WHAT YOU LIKE, AND LET THE FOOD
 FIGHT IT OUT INSIDE YOU. -- FROM A FORTUNE COOKIE
 Job cpu time:  1 days  3 hours 38 minutes 13.6 seconds.
 File lengths (MBytes):  RWF=   2994 Int=      0 D2E=      0 Chk=    149 Scr=      1
 Normal termination of Gaussian 09 at Tue Jan 27 13:43:44 2015.
