 Entering Gaussian System, Link 0=g09
 Input=sp_12_B3LYP_cc-pVDZ.com
 Output=sp_12_B3LYP_cc-pVDZ.log
 Initial command:
 /opt/g09/l1.exe /home/jarvist/2014-07_SPIRO/b3lyp-631gs_opt/delta_scf/cation/Gau-2946.inp -scrdir=/home/jarvist/2014-07_SPIRO/b3lyp-631gs_opt/delta_scf/cation/
 Default is to use a total of   8 processors:
                                8 via shared-memory
                                1 via Linda
 Entering Link 1 = /opt/g09/l1.exe PID=      2948.
  
 Copyright (c) 1988,1990,1992,1993,1995,1998,2003,2009, Gaussian, Inc.
                  All Rights Reserved.
  
 This is part of the Gaussian(R) 09 program.  It is based on
 the Gaussian(R) 03 system (copyright 2003, Gaussian, Inc.),
 the Gaussian(R) 98 system (copyright 1998, Gaussian, Inc.),
 the Gaussian(R) 94 system (copyright 1995, Gaussian, Inc.),
 the Gaussian 92(TM) system (copyright 1992, Gaussian, Inc.),
 the Gaussian 90(TM) system (copyright 1990, Gaussian, Inc.),
 the Gaussian 88(TM) system (copyright 1988, Gaussian, Inc.),
 the Gaussian 86(TM) system (copyright 1986, Carnegie Mellon
 University), and the Gaussian 82(TM) system (copyright 1983,
 Carnegie Mellon University). Gaussian is a federally registered
 trademark of Gaussian, Inc.
  
 This software contains proprietary and confidential information,
 including trade secrets, belonging to Gaussian, Inc.
  
 This software is provided under written license and may be
 used, copied, transmitted, or stored only in accord with that
 written license.
  
 The following legend is applicable only to US Government
 contracts under FAR:
  
                    RESTRICTED RIGHTS LEGEND
  
 Use, reproduction and disclosure by the US Government is
 subject to restrictions as set forth in subparagraphs (a)
 and (c) of the Commercial Computer Software - Restricted
 Rights clause in FAR 52.227-19.
  
 Gaussian, Inc.
 340 Quinnipiac St., Bldg. 40, Wallingford CT 06492
  
  
 ---------------------------------------------------------------
 Warning -- This program may not be used in any manner that
 competes with the business of Gaussian, Inc. or will provide
 assistance to any competitor of Gaussian, Inc.  The licensee
 of this program is prohibited from giving any competitor of
 Gaussian, Inc. access to this program.  By using this program,
 the user acknowledges that Gaussian, Inc. is engaged in the
 business of creating and licensing software in the field of
 computational chemistry and represents and warrants to the
 licensee that it is not a competitor of Gaussian, Inc. and that
 it will not use this program in any manner prohibited above.
 ---------------------------------------------------------------
  

 Cite this work as:
 Gaussian 09, Revision A.02,
 M. J. Frisch, G. W. Trucks, H. B. Schlegel, G. E. Scuseria, 
 M. A. Robb, J. R. Cheeseman, G. Scalmani, V. Barone, B. Mennucci, 
 G. A. Petersson, H. Nakatsuji, M. Caricato, X. Li, H. P. Hratchian, 
 A. F. Izmaylov, J. Bloino, G. Zheng, J. L. Sonnenberg, M. Hada, 
 M. Ehara, K. Toyota, R. Fukuda, J. Hasegawa, M. Ishida, T. Nakajima, 
 Y. Honda, O. Kitao, H. Nakai, T. Vreven, J. A. Montgomery, Jr., 
 J. E. Peralta, F. Ogliaro, M. Bearpark, J. J. Heyd, E. Brothers, 
 K. N. Kudin, V. N. Staroverov, R. Kobayashi, J. Normand, 
 K. Raghavachari, A. Rendell, J. C. Burant, S. S. Iyengar, J. Tomasi, 
 M. Cossi, N. Rega, J. M. Millam, M. Klene, J. E. Knox, J. B. Cross, 
 V. Bakken, C. Adamo, J. Jaramillo, R. Gomperts, R. E. Stratmann, 
 O. Yazyev, A. J. Austin, R. Cammi, C. Pomelli, J. W. Ochterski, 
 R. L. Martin, K. Morokuma, V. G. Zakrzewski, G. A. Voth, 
 P. Salvador, J. J. Dannenberg, S. Dapprich, A. D. Daniels, 
 O. Farkas, J. B. Foresman, J. V. Ortiz, J. Cioslowski, 
 and D. J. Fox, Gaussian, Inc., Wallingford CT, 2009.
 
 ******************************************
 Gaussian 09:  EM64L-G09RevA.02 11-Jun-2009
                 3-Feb-2015 
 ******************************************
 %mem=16GB
 %nprocs=24
 Will use up to   24 processors via shared memory.
 Default route:  MaxDisk=100GB
 -------------------
 #p sp B3LYP/cc-pVDZ
 -------------------
 1/38=1/1;
 2/12=2,17=6,18=5,40=1/2;
 3/5=16,11=2,16=1,25=1,30=1,74=-5/1,2,3;
 4//1;
 5/5=2,38=5/2;
 6/7=2,8=2,9=2,10=2,28=1/1;
 99/5=1,9=1/99;
 Leave Link    1 at Tue Feb  3 19:48:49 2015, MaxMem= 2147483648 cpu:       1.9
 (Enter /opt/g09/l101.exe)
 ------------------------------------------
 Auto Spiro; and yes I said yes I will Yes.
 ------------------------------------------
 Symbolic Z-matrix:
 Charge =  1 Multiplicity = 2
 C                     0.17579  -0.13131   0.01394 
 C                    -0.39916  -1.18937  -0.93935 
 C                    -0.15258  -0.83182  -2.27795 
 C                     0.55047   0.4533   -2.3013 
 C                     0.73712   0.89204  -0.9754 
 C                    -0.875     0.40464   0.99084 
 C                    -0.51125   0.1081    2.31941 
 C                     0.78487  -0.57395   2.31116 
 C                     1.22689  -0.69292   0.97996 
 C                    -2.06574   1.04831   0.69485 
 C                    -2.91566   1.4392    1.74645 
 C                    -2.54277   1.16223   3.07519 
 C                    -1.35663   0.49041   3.36396 
 C                     1.00863   1.24613  -3.3565 
 C                     1.6364    2.45883  -3.081 
 C                     1.83959   2.88799  -1.75564 
 C                     1.38504   2.08414  -0.69333 
 C                    -1.11988  -2.32688  -0.61123 
 C                    -1.60773  -3.1568   -1.64035 
 C                    -1.30909  -2.82945  -2.98033 
 C                    -0.60193  -1.67241  -3.29981 
 C                     1.59304  -1.05811   3.34228 
 C                     2.82767  -1.62576   3.03939 
 C                     3.29889  -1.68855   1.71115 
 C                     2.46997  -1.22203   0.67077 
 N                    -4.14484   2.10025   1.47335 
 N                     2.50065   4.11981  -1.49864 
 N                    -2.3809   -4.30183  -1.33365 
 N                     4.59581  -2.19508   1.44793 
 C                     5.63754  -1.99659   2.40553 
 C                    -2.1826   -4.9747   -0.09118 
 C                     4.93592  -2.79166   0.20138 
 C                    -3.43769  -4.74615  -2.17563 
 C                    -4.2144    3.09127   0.45774 
 C                    -5.31287   1.73755   2.19855 
 C                     3.63883   4.48648  -2.27094 
 C                     2.06593   4.96216  -0.44144 
 C                     3.77753   5.80353  -2.74671 
 C                     4.89407   6.14496  -3.49942 
 C                     5.881     5.20453  -3.81334 
 C                     5.73462   3.89399  -3.34432 
 C                     4.62369   3.54109  -2.5675 
 C                    -5.32228   3.1502   -0.39288 
 C                    -5.40613   4.13382  -1.3857 
 C                    -4.36929   5.05797  -1.55525 
 C                    -3.25851   4.97999  -0.70874 
 C                    -3.17029   4.02176   0.29406 
 C                    -6.18559   2.72453   2.6648 
 C                    -7.34424   2.37423   3.36852 
 C                    -7.63017   1.03      3.63478 
 C                    -6.74267   0.05191   3.17409 
 C                    -5.59987   0.38398   2.45686 
 C                     3.00075   5.62482   0.35967 
 C                     2.58046   6.47439   1.39041 
 C                     1.21708   6.65326   1.64861 
 C                     0.29076   5.97345   0.8505 
 C                     0.6919    5.14327  -0.18898 
 C                    -0.98682  -5.64447   0.17149 
 C                    -0.77512  -6.3034    1.38374 
 C                    -1.78452  -6.30516   2.34321 
 C                    -2.9919   -5.6431    2.10435 
 C                    -3.19584  -4.96428   0.89787 
 C                    -4.26194  -3.81691  -2.83558 
 C                    -5.29972  -4.26463  -3.65409 
 C                    -5.54287  -5.63885  -3.80609 
 C                    -4.73407  -6.54654  -3.13418 
 C                    -3.67796  -6.11656  -2.32692 
 C                     4.05787  -3.70206  -0.41546 
 C                     4.40692  -4.28512  -1.63692 
 C                     5.64078  -3.99376  -2.23741 
 C                     6.50417  -3.10245  -1.61298 
 C                     6.16133  -2.48925  -0.40693 
 C                     5.8754   -0.73409   2.9584 
 C                     6.90266  -0.5775    3.89232 
 C                     7.7035   -1.6504    4.26622 
 C                     7.47009  -2.91417   3.70259 
 C                     6.43348  -3.09124   2.78292 
 H                     2.81248  -1.25921  -0.35766 
 H                    -1.33242  -2.56601   0.42546 
 H                    -1.65502  -3.48373  -3.77326 
 H                    -0.40336  -1.43771  -4.3427 
 H                     0.86792   0.93639  -4.38897 
 H                     1.98117   3.08639  -3.89625 
 H                     1.27021  -1.00067   4.37886 
 H                     3.45261  -2.00673   3.83953 
 H                    -1.09214   0.28644   4.3985 
 H                    -3.19615   1.47826   3.88195 
 H                     1.54465   2.40128   0.33222 
 H                    -2.34883   1.24968  -0.33343 
 H                     5.887    -4.46568  -3.18282 
 H                    -6.35844  -5.95986  -4.44569 
 H                     6.73553   5.49801  -4.41129 
 H                    -4.41239   5.82341  -2.32077 
 O                     6.6271    2.8847   -3.57377 
 H                     4.54435   2.52214  -2.2055 
 H                    -6.13593   2.44033  -0.29759 
 O                    -6.53952   4.09183  -2.14958 
 H                     4.99823   7.16239  -3.86741 
 H                     3.01272   6.53924  -2.52333 
 H                    -2.45205   5.69829  -0.83202 
 H                    -2.30606   3.98413   0.94802 
 H                     6.83348  -1.7783    0.06001 
 H                     7.45568  -2.86253  -2.08016 
 O                     3.62008  -5.17055  -2.31712 
 H                     3.1173   -3.93508   0.06741 
 O                    -6.14789  -3.43684  -4.33556 
 H                    -4.08482  -2.76034  -2.68424 
 H                    -4.91553  -7.61197  -3.25026 
 H                    -3.04267  -6.83531  -1.82074 
 O                    -4.32032  -4.2638    0.58995 
 H                     0.16303  -6.81844   1.5681 
 H                    -0.2232   -5.64188  -0.59991 
 H                     5.26384   0.10992   2.65831 
 H                     7.08928   0.40346   4.32112 
 O                     8.29933  -3.91327   4.12692 
 H                     6.22682  -4.05927   2.34394 
 O                     3.58776   7.06994   2.09765 
 H                     4.0646    5.49442   0.19768 
 H                    -0.77013   6.11247   1.0428 
 H                    -0.04241   4.63438  -0.80355 
 H                    -4.93032  -0.38658   2.09063 
 H                    -6.96378  -0.99429   3.37032 
 O                    -8.12155   3.4254    3.76734 
 H                    -5.98332   3.7745    2.48583 
 H                    -1.64046  -6.81979   3.28927 
 H                    -8.51859   0.73917   4.18243 
 H                     0.87164   7.30034   2.44583 
 H                     8.5112   -1.53884   4.98223 
 C                    -5.95081  -2.03605  -4.22873 
 H                    -4.95561  -1.73876  -4.58487 
 H                    -6.07994  -1.68586  -3.19606 
 H                    -6.71302  -1.57756  -4.86178 
 H                    -3.76147  -5.6448    2.86784 
 C                    -5.38887  -4.25239   1.52253 
 H                    -5.76679  -5.26496   1.7149 
 H                    -6.17694  -3.65413   1.06221 
 H                    -5.08944  -3.79146   2.47342 
 C                     2.3169   -5.43127  -1.82314 
 C                     8.12637  -5.20986   3.57779 
 H                     8.89511  -5.83398   4.03744 
 H                     8.26221  -5.20925   2.48829 
 H                     7.1364   -5.6215    3.81574 
 H                     1.85655  -6.11385  -2.54036 
 H                     1.71879  -4.51312  -1.75889 
 H                     2.34751  -5.91301  -0.83595 
 C                     7.79618   3.18087  -4.31859 
 H                     8.36313   2.24927  -4.36863 
 H                     8.40597   3.95026  -3.8262 
 H                     7.55504   3.51219  -5.33763 
 C                     3.23614   7.9148    3.1801 
 H                     4.17875   8.2671    3.60358 
 H                     2.67287   7.37237   3.95125 
 H                     2.64536   8.77806   2.84525 
 C                    -6.67863   5.04272  -3.19168 
 C                    -9.29842   3.14621   4.50663 
 H                    -9.75361   4.11489   4.72177 
 H                    -9.07191   2.63483   5.45191 
 H                    -10.00474   2.5354    3.92849 
 H                    -7.63608   4.8258   -3.66941 
 H                    -5.87433   4.95123  -3.93393 
 H                    -6.69306   6.06998  -2.80354 
 
 NAtoms=    161 NQM=    161 NQMF=      0 NMic=      0 NMicF=      0 NTot=    161.
                    Isotopes and Nuclear Properties:
 (Nuclear quadrupole moments (NQMom) in fm**2, nuclear magnetic moments (NMagM)
  in nuclear magnetons)

  Atom         1           2           3           4           5           6           7           8           9          10
 IAtWgt=          12          12          12          12          12          12          12          12          12          12
 AtmWgt=  12.0000000  12.0000000  12.0000000  12.0000000  12.0000000  12.0000000  12.0000000  12.0000000  12.0000000  12.0000000
 NucSpn=           0           0           0           0           0           0           0           0           0           0
 AtZEff=   0.0000000   0.0000000   0.0000000   0.0000000   0.0000000   0.0000000   0.0000000   0.0000000   0.0000000   0.0000000
 NQMom=    0.0000000   0.0000000   0.0000000   0.0000000   0.0000000   0.0000000   0.0000000   0.0000000   0.0000000   0.0000000
 NMagM=    0.0000000   0.0000000   0.0000000   0.0000000   0.0000000   0.0000000   0.0000000   0.0000000   0.0000000   0.0000000

  Atom        11          12          13          14          15          16          17          18          19          20
 IAtWgt=          12          12          12          12          12          12          12          12          12          12
 AtmWgt=  12.0000000  12.0000000  12.0000000  12.0000000  12.0000000  12.0000000  12.0000000  12.0000000  12.0000000  12.0000000
 NucSpn=           0           0           0           0           0           0           0           0           0           0
 AtZEff=   0.0000000   0.0000000   0.0000000   0.0000000   0.0000000   0.0000000   0.0000000   0.0000000   0.0000000   0.0000000
 NQMom=    0.0000000   0.0000000   0.0000000   0.0000000   0.0000000   0.0000000   0.0000000   0.0000000   0.0000000   0.0000000
 NMagM=    0.0000000   0.0000000   0.0000000   0.0000000   0.0000000   0.0000000   0.0000000   0.0000000   0.0000000   0.0000000

  Atom        21          22          23          24          25          26          27          28          29          30
 IAtWgt=          12          12          12          12          12          14          14          14          14          12
 AtmWgt=  12.0000000  12.0000000  12.0000000  12.0000000  12.0000000  14.0030740  14.0030740  14.0030740  14.0030740  12.0000000
 NucSpn=           0           0           0           0           0           2           2           2           2           0
 AtZEff=   0.0000000   0.0000000   0.0000000   0.0000000   0.0000000   0.0000000   0.0000000   0.0000000   0.0000000   0.0000000
 NQMom=    0.0000000   0.0000000   0.0000000   0.0000000   0.0000000   2.0440000   2.0440000   2.0440000   2.0440000   0.0000000
 NMagM=    0.0000000   0.0000000   0.0000000   0.0000000   0.0000000   0.4037610   0.4037610   0.4037610   0.4037610   0.0000000

  Atom        31          32          33          34          35          36          37          38          39          40
 IAtWgt=          12          12          12          12          12          12          12          12          12          12
 AtmWgt=  12.0000000  12.0000000  12.0000000  12.0000000  12.0000000  12.0000000  12.0000000  12.0000000  12.0000000  12.0000000
 NucSpn=           0           0           0           0           0           0           0           0           0           0
 AtZEff=   0.0000000   0.0000000   0.0000000   0.0000000   0.0000000   0.0000000   0.0000000   0.0000000   0.0000000   0.0000000
 NQMom=    0.0000000   0.0000000   0.0000000   0.0000000   0.0000000   0.0000000   0.0000000   0.0000000   0.0000000   0.0000000
 NMagM=    0.0000000   0.0000000   0.0000000   0.0000000   0.0000000   0.0000000   0.0000000   0.0000000   0.0000000   0.0000000

  Atom        41          42          43          44          45          46          47          48          49          50
 IAtWgt=          12          12          12          12          12          12          12          12          12          12
 AtmWgt=  12.0000000  12.0000000  12.0000000  12.0000000  12.0000000  12.0000000  12.0000000  12.0000000  12.0000000  12.0000000
 NucSpn=           0           0           0           0           0           0           0           0           0           0
 AtZEff=   0.0000000   0.0000000   0.0000000   0.0000000   0.0000000   0.0000000   0.0000000   0.0000000   0.0000000   0.0000000
 NQMom=    0.0000000   0.0000000   0.0000000   0.0000000   0.0000000   0.0000000   0.0000000   0.0000000   0.0000000   0.0000000
 NMagM=    0.0000000   0.0000000   0.0000000   0.0000000   0.0000000   0.0000000   0.0000000   0.0000000   0.0000000   0.0000000

  Atom        51          52          53          54          55          56          57          58          59          60
 IAtWgt=          12          12          12          12          12          12          12          12          12          12
 AtmWgt=  12.0000000  12.0000000  12.0000000  12.0000000  12.0000000  12.0000000  12.0000000  12.0000000  12.0000000  12.0000000
 NucSpn=           0           0           0           0           0           0           0           0           0           0
 AtZEff=   0.0000000   0.0000000   0.0000000   0.0000000   0.0000000   0.0000000   0.0000000   0.0000000   0.0000000   0.0000000
 NQMom=    0.0000000   0.0000000   0.0000000   0.0000000   0.0000000   0.0000000   0.0000000   0.0000000   0.0000000   0.0000000
 NMagM=    0.0000000   0.0000000   0.0000000   0.0000000   0.0000000   0.0000000   0.0000000   0.0000000   0.0000000   0.0000000

  Atom        61          62          63          64          65          66          67          68          69          70
 IAtWgt=          12          12          12          12          12          12          12          12          12          12
 AtmWgt=  12.0000000  12.0000000  12.0000000  12.0000000  12.0000000  12.0000000  12.0000000  12.0000000  12.0000000  12.0000000
 NucSpn=           0           0           0           0           0           0           0           0           0           0
 AtZEff=   0.0000000   0.0000000   0.0000000   0.0000000   0.0000000   0.0000000   0.0000000   0.0000000   0.0000000   0.0000000
 NQMom=    0.0000000   0.0000000   0.0000000   0.0000000   0.0000000   0.0000000   0.0000000   0.0000000   0.0000000   0.0000000
 NMagM=    0.0000000   0.0000000   0.0000000   0.0000000   0.0000000   0.0000000   0.0000000   0.0000000   0.0000000   0.0000000

  Atom        71          72          73          74          75          76          77          78          79          80
 IAtWgt=          12          12          12          12          12          12          12           1           1           1
 AtmWgt=  12.0000000  12.0000000  12.0000000  12.0000000  12.0000000  12.0000000  12.0000000   1.0078250   1.0078250   1.0078250
 NucSpn=           0           0           0           0           0           0           0           1           1           1
 AtZEff=   0.0000000   0.0000000   0.0000000   0.0000000   0.0000000   0.0000000   0.0000000   0.0000000   0.0000000   0.0000000
 NQMom=    0.0000000   0.0000000   0.0000000   0.0000000   0.0000000   0.0000000   0.0000000   0.0000000   0.0000000   0.0000000
 NMagM=    0.0000000   0.0000000   0.0000000   0.0000000   0.0000000   0.0000000   0.0000000   2.7928460   2.7928460   2.7928460

  Atom        81          82          83          84          85          86          87          88          89          90
 IAtWgt=           1           1           1           1           1           1           1           1           1           1
 AtmWgt=   1.0078250   1.0078250   1.0078250   1.0078250   1.0078250   1.0078250   1.0078250   1.0078250   1.0078250   1.0078250
 NucSpn=           1           1           1           1           1           1           1           1           1           1
 AtZEff=   0.0000000   0.0000000   0.0000000   0.0000000   0.0000000   0.0000000   0.0000000   0.0000000   0.0000000   0.0000000
 NQMom=    0.0000000   0.0000000   0.0000000   0.0000000   0.0000000   0.0000000   0.0000000   0.0000000   0.0000000   0.0000000
 NMagM=    2.7928460   2.7928460   2.7928460   2.7928460   2.7928460   2.7928460   2.7928460   2.7928460   2.7928460   2.7928460

  Atom        91          92          93          94          95          96          97          98          99         100
 IAtWgt=           1           1           1          16           1           1          16           1           1           1
 AtmWgt=   1.0078250   1.0078250   1.0078250  15.9949146   1.0078250   1.0078250  15.9949146   1.0078250   1.0078250   1.0078250
 NucSpn=           1           1           1           0           1           1           0           1           1           1
 AtZEff=   0.0000000   0.0000000   0.0000000   0.0000000   0.0000000   0.0000000   0.0000000   0.0000000   0.0000000   0.0000000
 NQMom=    0.0000000   0.0000000   0.0000000   0.0000000   0.0000000   0.0000000   0.0000000   0.0000000   0.0000000   0.0000000
 NMagM=    2.7928460   2.7928460   2.7928460   0.0000000   2.7928460   2.7928460   0.0000000   2.7928460   2.7928460   2.7928460

  Atom       101         102         103         104         105         106         107         108         109         110
 IAtWgt=           1           1           1          16           1          16           1           1           1          16
 AtmWgt=   1.0078250   1.0078250   1.0078250  15.9949146   1.0078250  15.9949146   1.0078250   1.0078250   1.0078250  15.9949146
 NucSpn=           1           1           1           0           1           0           1           1           1           0
 AtZEff=   0.0000000   0.0000000   0.0000000   0.0000000   0.0000000   0.0000000   0.0000000   0.0000000   0.0000000   0.0000000
 NQMom=    0.0000000   0.0000000   0.0000000   0.0000000   0.0000000   0.0000000   0.0000000   0.0000000   0.0000000   0.0000000
 NMagM=    2.7928460   2.7928460   2.7928460   0.0000000   2.7928460   0.0000000   2.7928460   2.7928460   2.7928460   0.0000000

  Atom       111         112         113         114         115         116         117         118         119         120
 IAtWgt=           1           1           1           1          16           1          16           1           1           1
 AtmWgt=   1.0078250   1.0078250   1.0078250   1.0078250  15.9949146   1.0078250  15.9949146   1.0078250   1.0078250   1.0078250
 NucSpn=           1           1           1           1           0           1           0           1           1           1
 AtZEff=   0.0000000   0.0000000   0.0000000   0.0000000   0.0000000   0.0000000   0.0000000   0.0000000   0.0000000   0.0000000
 NQMom=    0.0000000   0.0000000   0.0000000   0.0000000   0.0000000   0.0000000   0.0000000   0.0000000   0.0000000   0.0000000
 NMagM=    2.7928460   2.7928460   2.7928460   2.7928460   0.0000000   2.7928460   0.0000000   2.7928460   2.7928460   2.7928460

  Atom       121         122         123         124         125         126         127         128         129         130
 IAtWgt=           1           1          16           1           1           1           1           1          12           1
 AtmWgt=   1.0078250   1.0078250  15.9949146   1.0078250   1.0078250   1.0078250   1.0078250   1.0078250  12.0000000   1.0078250
 NucSpn=           1           1           0           1           1           1           1           1           0           1
 AtZEff=   0.0000000   0.0000000   0.0000000   0.0000000   0.0000000   0.0000000   0.0000000   0.0000000   0.0000000   0.0000000
 NQMom=    0.0000000   0.0000000   0.0000000   0.0000000   0.0000000   0.0000000   0.0000000   0.0000000   0.0000000   0.0000000
 NMagM=    2.7928460   2.7928460   0.0000000   2.7928460   2.7928460   2.7928460   2.7928460   2.7928460   0.0000000   2.7928460

  Atom       131         132         133         134         135         136         137         138         139         140
 IAtWgt=           1           1           1          12           1           1           1          12          12           1
 AtmWgt=   1.0078250   1.0078250   1.0078250  12.0000000   1.0078250   1.0078250   1.0078250  12.0000000  12.0000000   1.0078250
 NucSpn=           1           1           1           0           1           1           1           0           0           1
 AtZEff=   0.0000000   0.0000000   0.0000000   0.0000000   0.0000000   0.0000000   0.0000000   0.0000000   0.0000000   0.0000000
 NQMom=    0.0000000   0.0000000   0.0000000   0.0000000   0.0000000   0.0000000   0.0000000   0.0000000   0.0000000   0.0000000
 NMagM=    2.7928460   2.7928460   2.7928460   0.0000000   2.7928460   2.7928460   2.7928460   0.0000000   0.0000000   2.7928460

  Atom       141         142         143         144         145         146         147         148         149         150
 IAtWgt=           1           1           1           1           1          12           1           1           1          12
 AtmWgt=   1.0078250   1.0078250   1.0078250   1.0078250   1.0078250  12.0000000   1.0078250   1.0078250   1.0078250  12.0000000
 NucSpn=           1           1           1           1           1           0           1           1           1           0
 AtZEff=   0.0000000   0.0000000   0.0000000   0.0000000   0.0000000   0.0000000   0.0000000   0.0000000   0.0000000   0.0000000
 NQMom=    0.0000000   0.0000000   0.0000000   0.0000000   0.0000000   0.0000000   0.0000000   0.0000000   0.0000000   0.0000000
 NMagM=    2.7928460   2.7928460   2.7928460   2.7928460   2.7928460   0.0000000   2.7928460   2.7928460   2.7928460   0.0000000

  Atom       151         152         153         154         155         156         157         158         159         160
 IAtWgt=           1           1           1          12          12           1           1           1           1           1
 AtmWgt=   1.0078250   1.0078250   1.0078250  12.0000000  12.0000000   1.0078250   1.0078250   1.0078250   1.0078250   1.0078250
 NucSpn=           1           1           1           0           0           1           1           1           1           1
 AtZEff=   0.0000000   0.0000000   0.0000000   0.0000000   0.0000000   0.0000000   0.0000000   0.0000000   0.0000000   0.0000000
 NQMom=    0.0000000   0.0000000   0.0000000   0.0000000   0.0000000   0.0000000   0.0000000   0.0000000   0.0000000   0.0000000
 NMagM=    2.7928460   2.7928460   2.7928460   0.0000000   0.0000000   2.7928460   2.7928460   2.7928460   2.7928460   2.7928460

  Atom       161
 IAtWgt=           1
 AtmWgt=   1.0078250
 NucSpn=           1
 AtZEff=   0.0000000
 NQMom=    0.0000000
 NMagM=    2.7928460
 Leave Link  101 at Tue Feb  3 19:48:49 2015, MaxMem= 2147483648 cpu:       4.4
 (Enter /opt/g09/l202.exe)
 Stoichiometry    C81H68N4O8(1+,2)
 Framework group  C1[X(C81H68N4O8)]
 Deg. of freedom   477
 Full point group                 C1      NOp   1
 Largest Abelian subgroup         C1      NOp   1
 Largest concise Abelian subgroup C1      NOp   1
                         Standard orientation:                         
 ---------------------------------------------------------------------
 Center     Atomic      Atomic             Coordinates (Angstroms)
 Number     Number       Type             X           Y           Z
 ---------------------------------------------------------------------
      1          6           0        0.175792   -0.131311    0.013942
      2          6           0       -0.399155   -1.189373   -0.939345
      3          6           0       -0.152575   -0.831818   -2.277952
      4          6           0        0.550474    0.453299   -2.301297
      5          6           0        0.737122    0.892035   -0.975397
      6          6           0       -0.875002    0.404639    0.990840
      7          6           0       -0.511251    0.108103    2.319409
      8          6           0        0.784866   -0.573948    2.311164
      9          6           0        1.226888   -0.692915    0.979959
     10          6           0       -2.065738    1.048314    0.694845
     11          6           0       -2.915660    1.439203    1.746450
     12          6           0       -2.542766    1.162234    3.075189
     13          6           0       -1.356627    0.490414    3.363957
     14          6           0        1.008630    1.246127   -3.356502
     15          6           0        1.636404    2.458827   -3.080995
     16          6           0        1.839592    2.887990   -1.755636
     17          6           0        1.385044    2.084144   -0.693332
     18          6           0       -1.119882   -2.326876   -0.611232
     19          6           0       -1.607727   -3.156802   -1.640349
     20          6           0       -1.309092   -2.829449   -2.980328
     21          6           0       -0.601932   -1.672411   -3.299808
     22          6           0        1.593040   -1.058114    3.342285
     23          6           0        2.827670   -1.625759    3.039386
     24          6           0        3.298891   -1.688548    1.711153
     25          6           0        2.469971   -1.222032    0.670768
     26          7           0       -4.144836    2.100248    1.473347
     27          7           0        2.500651    4.119807   -1.498637
     28          7           0       -2.380896   -4.301834   -1.333645
     29          7           0        4.595814   -2.195083    1.447928
     30          6           0        5.637537   -1.996591    2.405529
     31          6           0       -2.182598   -4.974696   -0.091177
     32          6           0        4.935919   -2.791661    0.201383
     33          6           0       -3.437693   -4.746147   -2.175633
     34          6           0       -4.214397    3.091270    0.457740
     35          6           0       -5.312866    1.737554    2.198551
     36          6           0        3.638825    4.486481   -2.270935
     37          6           0        2.065927    4.962159   -0.441437
     38          6           0        3.777528    5.803528   -2.746710
     39          6           0        4.894065    6.144962   -3.499424
     40          6           0        5.881002    5.204530   -3.813338
     41          6           0        5.734616    3.893991   -3.344325
     42          6           0        4.623692    3.541091   -2.567504
     43          6           0       -5.322281    3.150200   -0.392883
     44          6           0       -5.406129    4.133821   -1.385696
     45          6           0       -4.369294    5.057970   -1.555248
     46          6           0       -3.258512    4.979990   -0.708744
     47          6           0       -3.170289    4.021763    0.294059
     48          6           0       -6.185591    2.724531    2.664802
     49          6           0       -7.344237    2.374233    3.368523
     50          6           0       -7.630168    1.030002    3.634780
     51          6           0       -6.742674    0.051914    3.174092
     52          6           0       -5.599872    0.383984    2.456864
     53          6           0        3.000753    5.624819    0.359674
     54          6           0        2.580462    6.474390    1.390408
     55          6           0        1.217085    6.653264    1.648607
     56          6           0        0.290762    5.973454    0.850504
     57          6           0        0.691899    5.143266   -0.188979
     58          6           0       -0.986822   -5.644473    0.171486
     59          6           0       -0.775115   -6.303404    1.383742
     60          6           0       -1.784522   -6.305161    2.343205
     61          6           0       -2.991895   -5.643100    2.104354
     62          6           0       -3.195836   -4.964277    0.897865
     63          6           0       -4.261938   -3.816913   -2.835578
     64          6           0       -5.299718   -4.264628   -3.654087
     65          6           0       -5.542871   -5.638853   -3.806090
     66          6           0       -4.734071   -6.546543   -3.134183
     67          6           0       -3.677962   -6.116561   -2.326922
     68          6           0        4.057868   -3.702058   -0.415462
     69          6           0        4.406919   -4.285122   -1.636916
     70          6           0        5.640780   -3.993763   -2.237408
     71          6           0        6.504170   -3.102447   -1.612982
     72          6           0        6.161332   -2.489251   -0.406927
     73          6           0        5.875395   -0.734089    2.958403
     74          6           0        6.902661   -0.577501    3.892322
     75          6           0        7.703498   -1.650401    4.266223
     76          6           0        7.470090   -2.914168    3.702585
     77          6           0        6.433475   -3.091235    2.782922
     78          1           0        2.812475   -1.259209   -0.357661
     79          1           0       -1.332420   -2.566010    0.425461
     80          1           0       -1.655019   -3.483734   -3.773262
     81          1           0       -0.403356   -1.437711   -4.342704
     82          1           0        0.867916    0.936389   -4.388969
     83          1           0        1.981165    3.086395   -3.896254
     84          1           0        1.270213   -1.000671    4.378860
     85          1           0        3.452607   -2.006734    3.839525
     86          1           0       -1.092135    0.286441    4.398500
     87          1           0       -3.196153    1.478264    3.881952
     88          1           0        1.544649    2.401276    0.332219
     89          1           0       -2.348825    1.249678   -0.333434
     90          1           0        5.887000   -4.465680   -3.182822
     91          1           0       -6.358440   -5.959856   -4.445685
     92          1           0        6.735534    5.498007   -4.411288
     93          1           0       -4.412392    5.823408   -2.320773
     94          8           0        6.627095    2.884698   -3.573773
     95          1           0        4.544352    2.522135   -2.205499
     96          1           0       -6.135925    2.440327   -0.297587
     97          8           0       -6.539517    4.091826   -2.149577
     98          1           0        4.998233    7.162392   -3.867408
     99          1           0        3.012718    6.539244   -2.523329
    100          1           0       -2.452050    5.698291   -0.832015
    101          1           0       -2.306057    3.984134    0.948015
    102          1           0        6.833484   -1.778296    0.060012
    103          1           0        7.455678   -2.862531   -2.080161
    104          8           0        3.620076   -5.170547   -2.317117
    105          1           0        3.117296   -3.935077    0.067414
    106          8           0       -6.147892   -3.436835   -4.335565
    107          1           0       -4.084823   -2.760341   -2.684239
    108          1           0       -4.915529   -7.611974   -3.250261
    109          1           0       -3.042670   -6.835308   -1.820738
    110          8           0       -4.320324   -4.263800    0.589950
    111          1           0        0.163032   -6.818441    1.568104
    112          1           0       -0.223196   -5.641875   -0.599912
    113          1           0        5.263844    0.109919    2.658311
    114          1           0        7.089284    0.403456    4.321117
    115          8           0        8.299329   -3.913265    4.126925
    116          1           0        6.226817   -4.059270    2.343937
    117          8           0        3.587759    7.069935    2.097652
    118          1           0        4.064598    5.494416    0.197678
    119          1           0       -0.770127    6.112473    1.042797
    120          1           0       -0.042411    4.634380   -0.803554
    121          1           0       -4.930316   -0.386580    2.090626
    122          1           0       -6.963777   -0.994294    3.370323
    123          8           0       -8.121547    3.425397    3.767335
    124          1           0       -5.983317    3.774500    2.485830
    125          1           0       -1.640463   -6.819785    3.289272
    126          1           0       -8.518593    0.739174    4.182429
    127          1           0        0.871636    7.300343    2.445827
    128          1           0        8.511200   -1.538837    4.982228
    129          6           0       -5.950807   -2.036052   -4.228729
    130          1           0       -4.955615   -1.738758   -4.584870
    131          1           0       -6.079938   -1.685857   -3.196062
    132          1           0       -6.713015   -1.577555   -4.861782
    133          1           0       -3.761469   -5.644795    2.867839
    134          6           0       -5.388865   -4.252389    1.522533
    135          1           0       -5.766792   -5.264957    1.714899
    136          1           0       -6.176938   -3.654131    1.062214
    137          1           0       -5.089440   -3.791458    2.473420
    138          6           0        2.316899   -5.431269   -1.823144
    139          6           0        8.126374   -5.209864    3.577786
    140          1           0        8.895107   -5.833982    4.037436
    141          1           0        8.262209   -5.209248    2.488292
    142          1           0        7.136404   -5.621499    3.815744
    143          1           0        1.856548   -6.113848   -2.540355
    144          1           0        1.718791   -4.513122   -1.758885
    145          1           0        2.347508   -5.913009   -0.835949
    146          6           0        7.796179    3.180869   -4.318591
    147          1           0        8.363127    2.249275   -4.368633
    148          1           0        8.405972    3.950259   -3.826203
    149          1           0        7.555039    3.512191   -5.337627
    150          6           0        3.236137    7.914798    3.180097
    151          1           0        4.178749    8.267097    3.603584
    152          1           0        2.672869    7.372367    3.951249
    153          1           0        2.645357    8.778057    2.845251
    154          6           0       -6.678627    5.042720   -3.191677
    155          6           0       -9.298418    3.146212    4.506628
    156          1           0       -9.753607    4.114891    4.721771
    157          1           0       -9.071908    2.634833    5.451908
    158          1           0      -10.004741    2.535403    3.928485
    159          1           0       -7.636076    4.825801   -3.669407
    160          1           0       -5.874330    4.951231   -3.933927
    161          1           0       -6.693064    6.069984   -2.803535
 ---------------------------------------------------------------------
 Rotational constants (GHZ):      0.0190093      0.0149571      0.0113223
 Leave Link  202 at Tue Feb  3 19:48:50 2015, MaxMem= 2147483648 cpu:       3.3
 (Enter /opt/g09/l301.exe)
 Standard basis: CC-pVDZ (5D, 7F)
 Ernie: Thresh=  0.10000D-02 Tol=  0.10000D-05 Strict=F.
 Ernie:  186 primitive shells out of 2386 were deleted.
 There are  1642 symmetry adapted basis functions of A   symmetry.
 Integral buffers will be    131072 words long.
 Raffenetti 2 integral format.
 Two-electron integral symmetry is turned on.
  1642 basis functions,  3545 primitive gaussians,  1735 cartesian basis functions
   323 alpha electrons      322 beta electrons
       nuclear repulsion energy     16639.1622688175 Hartrees.
 IExCor=  402 DFT=T Ex+Corr=B3LYP ExCW=0 ScaHFX=  0.200000
 ScaDFX=  0.800000  0.720000  1.000000  0.810000 ScalE2=  1.000000  1.000000
 IRadAn=      0 IRanWt=     -1 IRanGd=            0 ICorTp=0
 NAtoms=  161 NActive=  161 NUniq=  161 SFac= 7.50D-01 NAtFMM=   80 NAOKFM=T Big=T
 Leave Link  301 at Tue Feb  3 19:48:50 2015, MaxMem= 2147483648 cpu:       2.2
 (Enter /opt/g09/l302.exe)
 NPDir=0 NMtPBC=     1 NCelOv=     1 NCel=       1 NClECP=     1 NCelD=      1
         NCelK=      1 NCelE2=     1 NClLst=     1 CellRange=     0.0.
 One-electron integrals computed using PRISM.
 NBasis=  1642 RedAO= T  NBF=  1642
 NBsUse=  1642 1.00D-06 NBFU=  1642
 Precomputing XC quadrature grid using
 IXCGrd= 2 IRadAn=           0 IRanWt=          -1 IRanGd=           0 AccXCQ= 1.00D-10.
 NRdTot=   10526 NPtTot=     1348816 NUsed=     1424604 NTot=     1424636
 NSgBfM=  1201  1217  1237  1249  1254 NAtAll=   161   160.
 Leave Link  302 at Tue Feb  3 19:49:44 2015, MaxMem= 2147483648 cpu:     638.7
 (Enter /opt/g09/l303.exe)
 DipDrv:  MaxL=1.
 Leave Link  303 at Tue Feb  3 19:49:48 2015, MaxMem= 2147483648 cpu:      52.7
 (Enter /opt/g09/l401.exe)
 Harris functional with IExCor=  402 diagonalized for initial guess.
 ExpMin= 1.22D-01 ExpMax= 1.17D+04 ExpMxC= 4.01D+02 IAcc=1 IRadAn=         1 AccDes= 0.00D+00
 HarFok:  IExCor=  402 AccDes= 0.00D+00 IRadAn=         1 IDoV= 1
 ScaDFX=  1.000000  1.000000  1.000000  1.000000
 FoFCou: FMM=F IPFlag=           0 FMFlag=      100000 FMFlg1=        2001
         NFxFlg=           0 DoJE=T BraDBF=F KetDBF=T FulRan=T
         Omega=  0.000000  0.000000  1.000000  0.000000  0.000000 ICntrl=     500 IOpCl=  0
         NMat0=    1 NMatS0=    1 NMatT0=    0 NMatD0=    1 NMtDS0=    0 NMtDT0=    0
         I1Cent=           4 NGrid=           0.
 Petite list used in FoFCou.
 Harris En= -3948.41930163523    
 Initial guess orbital symmetries:
 Alpha Orbitals:
       Occupied  (A) (A) (A) (A) (A) (A) (A) (A) (A) (A) (A) (A)
                 (A) (A) (A) (A) (A) (A) (A) (A) (A) (A) (A) (A)
                 (A) (A) (A) (A) (A) (A) (A) (A) (A) (A) (A) (A)
                 (A) (A) (A) (A) (A) (A) (A) (A) (A) (A) (A) (A)
                 (A) (A) (A) (A) (A) (A) (A) (A) (A) (A) (A) (A)
                 (A) (A) (A) (A) (A) (A) (A) (A) (A) (A) (A) (A)
                 (A) (A) (A) (A) (A) (A) (A) (A) (A) (A) (A) (A)
                 (A) (A) (A) (A) (A) (A) (A) (A) (A) (A) (A) (A)
                 (A) (A) (A) (A) (A) (A) (A) (A) (A) (A) (A) (A)
                 (A) (A) (A) (A) (A) (A) (A) (A) (A) (A) (A) (A)
                 (A) (A) (A) (A) (A) (A) (A) (A) (A) (A) (A) (A)
                 (A) (A) (A) (A) (A) (A) (A) (A) (A) (A) (A) (A)
                 (A) (A) (A) (A) (A) (A) (A) (A) (A) (A) (A) (A)
                 (A) (A) (A) (A) (A) (A) (A) (A) (A) (A) (A) (A)
                 (A) (A) (A) (A) (A) (A) (A) (A) (A) (A) (A) (A)
                 (A) (A) (A) (A) (A) (A) (A) (A) (A) (A) (A) (A)
                 (A) (A) (A) (A) (A) (A) (A) (A) (A) (A) (A) (A)
                 (A) (A) (A) (A) (A) (A) (A) (A) (A) (A) (A) (A)
                 (A) (A) (A) (A) (A) (A) (A) (A) (A) (A) (A) (A)
                 (A) (A) (A) (A) (A) (A) (A) (A) (A) (A) (A) (A)
                 (A) (A) (A) (A) (A) (A) (A) (A) (A) (A) (A) (A)
                 (A) (A) (A) (A) (A) (A) (A) (A) (A) (A) (A) (A)
                 (A) (A) (A) (A) (A) (A) (A) (A) (A) (A) (A) (A)
                 (A) (A) (A) (A) (A) (A) (A) (A) (A) (A) (A) (A)
                 (A) (A) (A) (A) (A) (A) (A) (A) (A) (A) (A) (A)
                 (A) (A) (A) (A) (A) (A) (A) (A) (A) (A) (A) (A)
                 (A) (A) (A) (A) (A) (A) (A) (A) (A) (A) (A)
       Virtual   (A) (A) (A) (A) (A) (A) (A) (A) (A) (A) (A) (A)
                 (A) (A) (A) (A) (A) (A) (A) (A) (A) (A) (A) (A)
                 (A) (A) (A) (A) (A) (A) (A) (A) (A) (A) (A) (A)
                 (A) (A) (A) (A) (A) (A) (A) (A) (A) (A) (A) (A)
                 (A) (A) (A) (A) (A) (A) (A) (A) (A) (A) (A) (A)
                 (A) (A) (A) (A) (A) (A) (A) (A) (A) (A) (A) (A)
                 (A) (A) (A) (A) (A) (A) (A) (A) (A) (A) (A) (A)
                 (A) (A) (A) (A) (A) (A) (A) (A) (A) (A) (A) (A)
                 (A) (A) (A) (A) (A) (A) (A) (A) (A) (A) (A) (A)
                 (A) (A) (A) (A) (A) (A) (A) (A) (A) (A) (A) (A)
                 (A) (A) (A) (A) (A) (A) (A) (A) (A) (A) (A) (A)
                 (A) (A) (A) (A) (A) (A) (A) (A) (A) (A) (A) (A)
                 (A) (A) (A) (A) (A) (A) (A) (A) (A) (A) (A) (A)
                 (A) (A) (A) (A) (A) (A) (A) (A) (A) (A) (A) (A)
                 (A) (A) (A) (A) (A) (A) (A) (A) (A) (A) (A) (A)
                 (A) (A) (A) (A) (A) (A) (A) (A) (A) (A) (A) (A)
                 (A) (A) (A) (A) (A) (A) (A) (A) (A) (A) (A) (A)
                 (A) (A) (A) (A) (A) (A) (A) (A) (A) (A) (A) (A)
                 (A) (A) (A) (A) (A) (A) (A) (A) (A) (A) (A) (A)
                 (A) (A) (A) (A) (A) (A) (A) (A) (A) (A) (A) (A)
                 (A) (A) (A) (A) (A) (A) (A) (A) (A) (A) (A) (A)
                 (A) (A) (A) (A) (A) (A) (A) (A) (A) (A) (A) (A)
                 (A) (A) (A) (A) (A) (A) (A) (A) (A) (A) (A) (A)
                 (A) (A) (A) (A) (A) (A) (A) (A) (A) (A) (A) (A)
                 (A) (A) (A) (A) (A) (A) (A) (A) (A) (A) (A) (A)
                 (A) (A) (A) (A) (A) (A) (A) (A) (A) (A) (A) (A)
                 (A) (A) (A) (A) (A) (A) (A) (A) (A) (A) (A) (A)
                 (A) (A) (A) (A) (A) (A) (A) (A) (A) (A) (A) (A)
                 (A) (A) (A) (A) (A) (A) (A) (A) (A) (A) (A) (A)
                 (A) (A) (A) (A) (A) (A) (A) (A) (A) (A) (A) (A)
                 (A) (A) (A) (A) (A) (A) (A) (A) (A) (A) (A) (A)
                 (A) (A) (A) (A) (A) (A) (A) (A) (A) (A) (A) (A)
                 (A) (A) (A) (A) (A) (A) (A) (A) (A) (A) (A) (A)
                 (A) (A) (A) (A) (A) (A) (A) (A) (A) (A) (A) (A)
                 (A) (A) (A) (A) (A) (A) (A) (A) (A) (A) (A) (A)
                 (A) (A) (A) (A) (A) (A) (A) (A) (A) (A) (A) (A)
                 (A) (A) (A) (A) (A) (A) (A) (A) (A) (A) (A) (A)
                 (A) (A) (A) (A) (A) (A) (A) (A) (A) (A) (A) (A)
                 (A) (A) (A) (A) (A) (A) (A) (A) (A) (A) (A) (A)
                 (A) (A) (A) (A) (A) (A) (A) (A) (A) (A) (A) (A)
                 (A) (A) (A) (A) (A) (A) (A) (A) (A) (A) (A) (A)
                 (A) (A) (A) (A) (A) (A) (A) (A) (A) (A) (A) (A)
                 (A) (A) (A) (A) (A) (A) (A) (A) (A) (A) (A) (A)
                 (A) (A) (A) (A) (A) (A) (A) (A) (A) (A) (A) (A)
                 (A) (A) (A) (A) (A) (A) (A) (A) (A) (A) (A) (A)
                 (A) (A) (A) (A) (A) (A) (A) (A) (A) (A) (A) (A)
                 (A) (A) (A) (A) (A) (A) (A) (A) (A) (A) (A) (A)
                 (A) (A) (A) (A) (A) (A) (A) (A) (A) (A) (A) (A)
                 (A) (A) (A) (A) (A) (A) (A) (A) (A) (A) (A) (A)
                 (A) (A) (A) (A) (A) (A) (A) (A) (A) (A) (A) (A)
                 (A) (A) (A) (A) (A) (A) (A) (A) (A) (A) (A) (A)
                 (A) (A) (A) (A) (A) (A) (A) (A) (A) (A) (A) (A)
                 (A) (A) (A) (A) (A) (A) (A) (A) (A) (A) (A) (A)
                 (A) (A) (A) (A) (A) (A) (A) (A) (A) (A) (A) (A)
                 (A) (A) (A) (A) (A) (A) (A) (A) (A) (A) (A) (A)
                 (A) (A) (A) (A) (A) (A) (A) (A) (A) (A) (A) (A)
                 (A) (A) (A) (A) (A) (A) (A) (A) (A) (A) (A) (A)
                 (A) (A) (A) (A) (A) (A) (A) (A) (A) (A) (A) (A)
                 (A) (A) (A) (A) (A) (A) (A) (A) (A) (A) (A) (A)
                 (A) (A) (A) (A) (A) (A) (A) (A) (A) (A) (A) (A)
                 (A) (A) (A) (A) (A) (A) (A) (A) (A) (A) (A) (A)
                 (A) (A) (A) (A) (A) (A) (A) (A) (A) (A) (A) (A)
                 (A) (A) (A) (A) (A) (A) (A) (A) (A) (A) (A) (A)
                 (A) (A) (A) (A) (A) (A) (A) (A) (A) (A) (A) (A)
                 (A) (A) (A) (A) (A) (A) (A) (A) (A) (A) (A) (A)
                 (A) (A) (A) (A) (A) (A) (A) (A) (A) (A) (A) (A)
                 (A) (A) (A) (A) (A) (A) (A) (A) (A) (A) (A) (A)
                 (A) (A) (A) (A) (A) (A) (A) (A) (A) (A) (A) (A)
                 (A) (A) (A) (A) (A) (A) (A) (A) (A) (A) (A) (A)
                 (A) (A) (A) (A) (A) (A) (A) (A) (A) (A) (A) (A)
                 (A) (A) (A) (A) (A) (A) (A) (A) (A) (A) (A) (A)
                 (A) (A) (A) (A) (A) (A) (A) (A) (A) (A) (A) (A)
                 (A) (A) (A) (A) (A) (A) (A) (A) (A) (A) (A) (A)
                 (A) (A) (A) (A) (A) (A) (A) (A) (A) (A) (A) (A)
                 (A) (A) (A) (A) (A) (A) (A) (A) (A) (A) (A) (A)
                 (A) (A) (A) (A) (A) (A) (A) (A) (A) (A) (A) (A)
                 (A) (A) (A) (A) (A) (A) (A) (A) (A) (A) (A) (A)
                 (A) (A) (A) (A) (A) (A) (A) (A) (A) (A) (A) (A)
                 (A) (A) (A) (A) (A) (A) (A) (A) (A) (A) (A) (A)
                 (A) (A) (A) (A) (A) (A) (A) (A) (A) (A) (A) (A)
                 (A) (A) (A) (A) (A) (A) (A) (A) (A) (A) (A) (A)
                 (A) (A) (A) (A) (A) (A) (A) (A) (A) (A) (A) (A)
                 (A) (A) (A) (A) (A) (A) (A) (A) (A) (A) (A) (A)
                 (A) (A) (A) (A) (A) (A) (A) (A) (A) (A) (A) (A)
                 (A) (A) (A) (A) (A) (A) (A) (A) (A) (A) (A) (A)
                 (A) (A) (A) (A) (A) (A) (A) (A) (A) (A) (A) (A)
                 (A) (A) (A) (A) (A) (A) (A) (A) (A) (A) (A) (A)
                 (A) (A) (A) (A) (A) (A) (A) (A) (A) (A) (A) (A)
                 (A) (A) (A) (A) (A) (A) (A) (A) (A) (A) (A) (A)
                 (A) (A) (A) (A) (A) (A) (A) (A) (A) (A) (A) (A)
                 (A) (A) (A) (A) (A) (A) (A) (A) (A) (A) (A) (A)
                 (A) (A) (A) (A) (A) (A) (A) (A) (A) (A) (A) (A)
                 (A) (A) (A) (A) (A) (A) (A) (A) (A) (A) (A) (A)
                 (A) (A) (A) (A) (A) (A) (A) (A) (A) (A) (A) (A)
                 (A) (A) (A) (A) (A) (A) (A) (A) (A) (A) (A) (A)
                 (A) (A) (A) (A) (A) (A) (A) (A) (A) (A) (A) (A)
                 (A) (A) (A) (A) (A) (A) (A) (A) (A) (A) (A) (A)
                 (A) (A) (A) (A) (A) (A) (A) (A) (A) (A) (A) (A)
                 (A) (A) (A) (A) (A) (A) (A) (A) (A) (A) (A) (A)
                 (A) (A) (A) (A) (A) (A) (A) (A) (A) (A) (A) (A)
                 (A) (A) (A) (A) (A) (A) (A) (A) (A) (A) (A) (A)
                 (A) (A) (A) (A) (A) (A) (A) (A) (A) (A) (A) (A)
                 (A) (A) (A) (A) (A) (A) (A) (A) (A) (A) (A) (A)
                 (A) (A) (A) (A) (A) (A) (A) (A) (A) (A) (A) (A)
                 (A) (A) (A) (A) (A) (A) (A) (A) (A) (A) (A) (A)
                 (A) (A) (A) (A) (A) (A) (A) (A) (A) (A) (A) (A)
                 (A) (A) (A) (A) (A) (A) (A) (A) (A) (A) (A) (A)
                 (A) (A) (A) (A) (A) (A) (A) (A) (A) (A) (A) (A)
                 (A) (A) (A) (A) (A) (A) (A) (A) (A) (A) (A) (A)
                 (A) (A) (A) (A) (A) (A) (A) (A) (A) (A) (A)
 Beta  Orbitals:
       Occupied  (A) (A) (A) (A) (A) (A) (A) (A) (A) (A) (A) (A)
                 (A) (A) (A) (A) (A) (A) (A) (A) (A) (A) (A) (A)
                 (A) (A) (A) (A) (A) (A) (A) (A) (A) (A) (A) (A)
                 (A) (A) (A) (A) (A) (A) (A) (A) (A) (A) (A) (A)
                 (A) (A) (A) (A) (A) (A) (A) (A) (A) (A) (A) (A)
                 (A) (A) (A) (A) (A) (A) (A) (A) (A) (A) (A) (A)
                 (A) (A) (A) (A) (A) (A) (A) (A) (A) (A) (A) (A)
                 (A) (A) (A) (A) (A) (A) (A) (A) (A) (A) (A) (A)
                 (A) (A) (A) (A) (A) (A) (A) (A) (A) (A) (A) (A)
                 (A) (A) (A) (A) (A) (A) (A) (A) (A) (A) (A) (A)
                 (A) (A) (A) (A) (A) (A) (A) (A) (A) (A) (A) (A)
                 (A) (A) (A) (A) (A) (A) (A) (A) (A) (A) (A) (A)
                 (A) (A) (A) (A) (A) (A) (A) (A) (A) (A) (A) (A)
                 (A) (A) (A) (A) (A) (A) (A) (A) (A) (A) (A) (A)
                 (A) (A) (A) (A) (A) (A) (A) (A) (A) (A) (A) (A)
                 (A) (A) (A) (A) (A) (A) (A) (A) (A) (A) (A) (A)
                 (A) (A) (A) (A) (A) (A) (A) (A) (A) (A) (A) (A)
                 (A) (A) (A) (A) (A) (A) (A) (A) (A) (A) (A) (A)
                 (A) (A) (A) (A) (A) (A) (A) (A) (A) (A) (A) (A)
                 (A) (A) (A) (A) (A) (A) (A) (A) (A) (A) (A) (A)
                 (A) (A) (A) (A) (A) (A) (A) (A) (A) (A) (A) (A)
                 (A) (A) (A) (A) (A) (A) (A) (A) (A) (A) (A) (A)
                 (A) (A) (A) (A) (A) (A) (A) (A) (A) (A) (A) (A)
                 (A) (A) (A) (A) (A) (A) (A) (A) (A) (A) (A) (A)
                 (A) (A) (A) (A) (A) (A) (A) (A) (A) (A) (A) (A)
                 (A) (A) (A) (A) (A) (A) (A) (A) (A) (A) (A) (A)
                 (A) (A) (A) (A) (A) (A) (A) (A) (A) (A)
       Virtual   (A) (A) (A) (A) (A) (A) (A) (A) (A) (A) (A) (A)
                 (A) (A) (A) (A) (A) (A) (A) (A) (A) (A) (A) (A)
                 (A) (A) (A) (A) (A) (A) (A) (A) (A) (A) (A) (A)
                 (A) (A) (A) (A) (A) (A) (A) (A) (A) (A) (A) (A)
                 (A) (A) (A) (A) (A) (A) (A) (A) (A) (A) (A) (A)
                 (A) (A) (A) (A) (A) (A) (A) (A) (A) (A) (A) (A)
                 (A) (A) (A) (A) (A) (A) (A) (A) (A) (A) (A) (A)
                 (A) (A) (A) (A) (A) (A) (A) (A) (A) (A) (A) (A)
                 (A) (A) (A) (A) (A) (A) (A) (A) (A) (A) (A) (A)
                 (A) (A) (A) (A) (A) (A) (A) (A) (A) (A) (A) (A)
                 (A) (A) (A) (A) (A) (A) (A) (A) (A) (A) (A) (A)
                 (A) (A) (A) (A) (A) (A) (A) (A) (A) (A) (A) (A)
                 (A) (A) (A) (A) (A) (A) (A) (A) (A) (A) (A) (A)
                 (A) (A) (A) (A) (A) (A) (A) (A) (A) (A) (A) (A)
                 (A) (A) (A) (A) (A) (A) (A) (A) (A) (A) (A) (A)
                 (A) (A) (A) (A) (A) (A) (A) (A) (A) (A) (A) (A)
                 (A) (A) (A) (A) (A) (A) (A) (A) (A) (A) (A) (A)
                 (A) (A) (A) (A) (A) (A) (A) (A) (A) (A) (A) (A)
                 (A) (A) (A) (A) (A) (A) (A) (A) (A) (A) (A) (A)
                 (A) (A) (A) (A) (A) (A) (A) (A) (A) (A) (A) (A)
                 (A) (A) (A) (A) (A) (A) (A) (A) (A) (A) (A) (A)
                 (A) (A) (A) (A) (A) (A) (A) (A) (A) (A) (A) (A)
                 (A) (A) (A) (A) (A) (A) (A) (A) (A) (A) (A) (A)
                 (A) (A) (A) (A) (A) (A) (A) (A) (A) (A) (A) (A)
                 (A) (A) (A) (A) (A) (A) (A) (A) (A) (A) (A) (A)
                 (A) (A) (A) (A) (A) (A) (A) (A) (A) (A) (A) (A)
                 (A) (A) (A) (A) (A) (A) (A) (A) (A) (A) (A) (A)
                 (A) (A) (A) (A) (A) (A) (A) (A) (A) (A) (A) (A)
                 (A) (A) (A) (A) (A) (A) (A) (A) (A) (A) (A) (A)
                 (A) (A) (A) (A) (A) (A) (A) (A) (A) (A) (A) (A)
                 (A) (A) (A) (A) (A) (A) (A) (A) (A) (A) (A) (A)
                 (A) (A) (A) (A) (A) (A) (A) (A) (A) (A) (A) (A)
                 (A) (A) (A) (A) (A) (A) (A) (A) (A) (A) (A) (A)
                 (A) (A) (A) (A) (A) (A) (A) (A) (A) (A) (A) (A)
                 (A) (A) (A) (A) (A) (A) (A) (A) (A) (A) (A) (A)
                 (A) (A) (A) (A) (A) (A) (A) (A) (A) (A) (A) (A)
                 (A) (A) (A) (A) (A) (A) (A) (A) (A) (A) (A) (A)
                 (A) (A) (A) (A) (A) (A) (A) (A) (A) (A) (A) (A)
                 (A) (A) (A) (A) (A) (A) (A) (A) (A) (A) (A) (A)
                 (A) (A) (A) (A) (A) (A) (A) (A) (A) (A) (A) (A)
                 (A) (A) (A) (A) (A) (A) (A) (A) (A) (A) (A) (A)
                 (A) (A) (A) (A) (A) (A) (A) (A) (A) (A) (A) (A)
                 (A) (A) (A) (A) (A) (A) (A) (A) (A) (A) (A) (A)
                 (A) (A) (A) (A) (A) (A) (A) (A) (A) (A) (A) (A)
                 (A) (A) (A) (A) (A) (A) (A) (A) (A) (A) (A) (A)
                 (A) (A) (A) (A) (A) (A) (A) (A) (A) (A) (A) (A)
                 (A) (A) (A) (A) (A) (A) (A) (A) (A) (A) (A) (A)
                 (A) (A) (A) (A) (A) (A) (A) (A) (A) (A) (A) (A)
                 (A) (A) (A) (A) (A) (A) (A) (A) (A) (A) (A) (A)
                 (A) (A) (A) (A) (A) (A) (A) (A) (A) (A) (A) (A)
                 (A) (A) (A) (A) (A) (A) (A) (A) (A) (A) (A) (A)
                 (A) (A) (A) (A) (A) (A) (A) (A) (A) (A) (A) (A)
                 (A) (A) (A) (A) (A) (A) (A) (A) (A) (A) (A) (A)
                 (A) (A) (A) (A) (A) (A) (A) (A) (A) (A) (A) (A)
                 (A) (A) (A) (A) (A) (A) (A) (A) (A) (A) (A) (A)
                 (A) (A) (A) (A) (A) (A) (A) (A) (A) (A) (A) (A)
                 (A) (A) (A) (A) (A) (A) (A) (A) (A) (A) (A) (A)
                 (A) (A) (A) (A) (A) (A) (A) (A) (A) (A) (A) (A)
                 (A) (A) (A) (A) (A) (A) (A) (A) (A) (A) (A) (A)
                 (A) (A) (A) (A) (A) (A) (A) (A) (A) (A) (A) (A)
                 (A) (A) (A) (A) (A) (A) (A) (A) (A) (A) (A) (A)
                 (A) (A) (A) (A) (A) (A) (A) (A) (A) (A) (A) (A)
                 (A) (A) (A) (A) (A) (A) (A) (A) (A) (A) (A) (A)
                 (A) (A) (A) (A) (A) (A) (A) (A) (A) (A) (A) (A)
                 (A) (A) (A) (A) (A) (A) (A) (A) (A) (A) (A) (A)
                 (A) (A) (A) (A) (A) (A) (A) (A) (A) (A) (A) (A)
                 (A) (A) (A) (A) (A) (A) (A) (A) (A) (A) (A) (A)
                 (A) (A) (A) (A) (A) (A) (A) (A) (A) (A) (A) (A)
                 (A) (A) (A) (A) (A) (A) (A) (A) (A) (A) (A) (A)
                 (A) (A) (A) (A) (A) (A) (A) (A) (A) (A) (A) (A)
                 (A) (A) (A) (A) (A) (A) (A) (A) (A) (A) (A) (A)
                 (A) (A) (A) (A) (A) (A) (A) (A) (A) (A) (A) (A)
                 (A) (A) (A) (A) (A) (A) (A) (A) (A) (A) (A) (A)
                 (A) (A) (A) (A) (A) (A) (A) (A) (A) (A) (A) (A)
                 (A) (A) (A) (A) (A) (A) (A) (A) (A) (A) (A) (A)
                 (A) (A) (A) (A) (A) (A) (A) (A) (A) (A) (A) (A)
                 (A) (A) (A) (A) (A) (A) (A) (A) (A) (A) (A) (A)
                 (A) (A) (A) (A) (A) (A) (A) (A) (A) (A) (A) (A)
                 (A) (A) (A) (A) (A) (A) (A) (A) (A) (A) (A) (A)
                 (A) (A) (A) (A) (A) (A) (A) (A) (A) (A) (A) (A)
                 (A) (A) (A) (A) (A) (A) (A) (A) (A) (A) (A) (A)
                 (A) (A) (A) (A) (A) (A) (A) (A) (A) (A) (A) (A)
                 (A) (A) (A) (A) (A) (A) (A) (A) (A) (A) (A) (A)
                 (A) (A) (A) (A) (A) (A) (A) (A) (A) (A) (A) (A)
                 (A) (A) (A) (A) (A) (A) (A) (A) (A) (A) (A) (A)
                 (A) (A) (A) (A) (A) (A) (A) (A) (A) (A) (A) (A)
                 (A) (A) (A) (A) (A) (A) (A) (A) (A) (A) (A) (A)
                 (A) (A) (A) (A) (A) (A) (A) (A) (A) (A) (A) (A)
                 (A) (A) (A) (A) (A) (A) (A) (A) (A) (A) (A) (A)
                 (A) (A) (A) (A) (A) (A) (A) (A) (A) (A) (A) (A)
                 (A) (A) (A) (A) (A) (A) (A) (A) (A) (A) (A) (A)
                 (A) (A) (A) (A) (A) (A) (A) (A) (A) (A) (A) (A)
                 (A) (A) (A) (A) (A) (A) (A) (A) (A) (A) (A) (A)
                 (A) (A) (A) (A) (A) (A) (A) (A) (A) (A) (A) (A)
                 (A) (A) (A) (A) (A) (A) (A) (A) (A) (A) (A) (A)
                 (A) (A) (A) (A) (A) (A) (A) (A) (A) (A) (A) (A)
                 (A) (A) (A) (A) (A) (A) (A) (A) (A) (A) (A) (A)
                 (A) (A) (A) (A) (A) (A) (A) (A) (A) (A) (A) (A)
                 (A) (A) (A) (A) (A) (A) (A) (A) (A) (A) (A) (A)
                 (A) (A) (A) (A) (A) (A) (A) (A) (A) (A) (A) (A)
                 (A) (A) (A) (A) (A) (A) (A) (A) (A) (A) (A) (A)
                 (A) (A) (A) (A) (A) (A) (A) (A) (A) (A) (A) (A)
                 (A) (A) (A) (A) (A) (A) (A) (A) (A) (A) (A) (A)
                 (A) (A) (A) (A) (A) (A) (A) (A) (A) (A) (A) (A)
                 (A) (A) (A) (A) (A) (A) (A) (A) (A) (A) (A) (A)
                 (A) (A) (A) (A) (A) (A) (A) (A) (A) (A) (A) (A)
                 (A) (A) (A) (A) (A) (A) (A) (A) (A) (A) (A) (A)
                 (A) (A) (A) (A) (A) (A) (A) (A) (A) (A) (A) (A)
                 (A) (A) (A) (A) (A) (A) (A) (A) (A) (A) (A) (A)
                 (A) (A) (A) (A) (A) (A) (A) (A) (A) (A) (A) (A)
 The electronic state of the initial guess is 2-A.
 Initial guess <Sx>= 0.0000 <Sy>= 0.0000 <Sz>= 0.5000 <S**2>= 0.7500 S= 0.5000
 Leave Link  401 at Tue Feb  3 19:50:49 2015, MaxMem= 2147483648 cpu:     720.2
 (Enter /opt/g09/l502.exe)
 UHF open shell SCF:
 Requested convergence on RMS density matrix=1.00D-08 within 128 cycles.
 Requested convergence on MAX density matrix=1.00D-06.
 Requested convergence on             energy=1.00D-06.
 No special actions if energy rises.
 Using DIIS extrapolation, IDIIS=  1040.
 Integral symmetry usage will be decided dynamically.
      1423142 words used for storage of precomputed grid.
 IEnd=    10526739 IEndB=    10526739 NGot=  2147483648 MDV=  2139985510
 LenX=  2139985510 LenY=  2136973550
 Fock matrices will be formed incrementally for  20 cycles.
 Integral accuracy reduced to 1.0D-05 until final iterations.

 Cycle   1  Pass 0  IDiag  1:
 FoFCou: FMM=T IPFlag=           0 FMFlag=      100000 FMFlg1=        2001
         NFxFlg=           0 DoJE=F BraDBF=F KetDBF=F FulRan=T
         Omega=  0.000000  0.000000  1.000000  0.000000  0.000000 ICntrl=       0 IOpCl=  1
         NMat0=    1 NMatS0=    1 NMatT0=    0 NMatD0=    1 NMtDS0=    0 NMtDT0=    0
         I1Cent=           0 NGrid=           0.
 Symmetry not used in FoFCou.
 FMM levels:  10  Number of levels for PrismC:   9
 E= -3946.54336574933    
 DIIS: error= 1.53D-02 at cycle   1 NSaved=   1.
 NSaved= 1 IEnMin= 1 EnMin= -3946.54336574933     IErMin= 1 ErrMin= 1.53D-02
 ErrMax= 1.53D-02 EMaxC= 1.00D-01 BMatC= 6.26D+00 BMatP= 6.26D+00
 IDIUse=3 WtCom= 8.47D-01 WtEn= 1.53D-01
 Coeff-Com:  0.100D+01
 Coeff-En:   0.100D+01
 Coeff:      0.100D+01
 Gap=     0.165 Goal=   None    Shift=    0.000
 Gap=     0.011 Goal=   None    Shift=    0.000
 GapD=    0.011 DampG=0.250 DampE=0.500 DampFc=0.2500 IDamp=-1.
 Damping current iteration by 2.50D-01
 RMSDP=2.23D-03 MaxDP=1.89D-01              OVMax= 4.97D-01

 Cycle   2  Pass 0  IDiag  1:
 RMSU=  3.72D-04    CP:  9.79D-01
 E= -3947.17207494975     Delta-E=       -0.628709200424 Rises=F Damp=T
 DIIS: error= 8.49D-03 at cycle   2 NSaved=   2.
 NSaved= 2 IEnMin= 2 EnMin= -3947.17207494975     IErMin= 2 ErrMin= 8.49D-03
 ErrMax= 8.49D-03 EMaxC= 1.00D-01 BMatC= 1.70D+00 BMatP= 6.26D+00
 IDIUse=3 WtCom= 9.15D-01 WtEn= 8.49D-02
 Coeff-Com: -0.851D+00 0.185D+01
 Coeff-En:   0.000D+00 0.100D+01
 Coeff:     -0.779D+00 0.178D+01
 Gap=     0.158 Goal=   None    Shift=    0.000
 Gap=     0.009 Goal=   None    Shift=    0.000
 RMSDP=1.16D-03 MaxDP=1.40D-01 DE=-6.29D-01 OVMax= 7.73D-01

 Cycle   3  Pass 0  IDiag  1:
 RMSU=  5.30D-04    CP:  9.30D-01  2.39D+00
 E= -3948.04970184030     Delta-E=       -0.877626890546 Rises=F Damp=F
 DIIS: error= 6.90D-03 at cycle   3 NSaved=   3.
 NSaved= 3 IEnMin= 3 EnMin= -3948.04970184030     IErMin= 3 ErrMin= 6.90D-03
 ErrMax= 6.90D-03 EMaxC= 1.00D-01 BMatC= 9.47D-01 BMatP= 1.70D+00
 IDIUse=3 WtCom= 9.31D-01 WtEn= 6.90D-02
 Coeff-Com: -0.578D+00 0.117D+01 0.411D+00
 Coeff-En:   0.000D+00 0.000D+00 0.100D+01
 Coeff:     -0.538D+00 0.109D+01 0.452D+00
 Gap=     0.188 Goal=   None    Shift=    0.000
 Gap=    -0.015 Goal=   None    Shift=    0.000
 RMSDP=6.56D-04 MaxDP=9.80D-02 DE=-8.78D-01 OVMax= 6.93D-01

 Cycle   4  Pass 0  IDiag  1:
 RMSU=  2.51D-04    CP:  9.33D-01  2.52D+00  3.85D-01
 E= -3948.21578390873     Delta-E=       -0.166082068430 Rises=F Damp=F
 DIIS: error= 5.29D-03 at cycle   4 NSaved=   4.
 NSaved= 4 IEnMin= 4 EnMin= -3948.21578390873     IErMin= 4 ErrMin= 5.29D-03
 ErrMax= 5.29D-03 EMaxC= 1.00D-01 BMatC= 3.51D-01 BMatP= 9.47D-01
 IDIUse=3 WtCom= 9.47D-01 WtEn= 5.29D-02
 Coeff-Com: -0.258D+00 0.515D+00 0.352D+00 0.391D+00
 Coeff-En:   0.000D+00 0.000D+00 0.330D+00 0.670D+00
 Coeff:     -0.245D+00 0.488D+00 0.351D+00 0.406D+00
 Gap=     0.151 Goal=   None    Shift=    0.000
 Gap=    -0.001 Goal=   None    Shift=    0.000
 RMSDP=4.49D-04 MaxDP=5.36D-02 DE=-1.66D-01 OVMax= 8.08D-01

 Cycle   5  Pass 0  IDiag  1:
 RMSU=  1.26D-04    CP:  9.34D-01  2.39D+00  6.49D-01  2.55D-01
 E= -3948.29359997850     Delta-E=       -0.077816069774 Rises=F Damp=F
 DIIS: error= 2.07D-03 at cycle   5 NSaved=   5.
 NSaved= 5 IEnMin= 5 EnMin= -3948.29359997850     IErMin= 5 ErrMin= 2.07D-03
 ErrMax= 2.07D-03 EMaxC= 1.00D-01 BMatC= 8.11D-02 BMatP= 3.51D-01
 IDIUse=3 WtCom= 9.79D-01 WtEn= 2.07D-02
 Coeff-Com: -0.873D-01 0.173D+00 0.209D+00 0.335D+00 0.369D+00
 Coeff-En:   0.000D+00 0.000D+00 0.000D+00 0.241D+00 0.759D+00
 Coeff:     -0.855D-01 0.170D+00 0.205D+00 0.333D+00 0.378D+00
 Gap=     0.146 Goal=   None    Shift=    0.000
 Gap=     0.002 Goal=   None    Shift=    0.000
 RMSDP=3.45D-04 MaxDP=5.23D-02 DE=-7.78D-02 OVMax= 6.69D-01

 Cycle   6  Pass 0  IDiag  1:
 RMSU=  6.53D-05    CP:  9.34D-01  2.44D+00  5.21D-01  6.98D-01  2.08D-03
 E= -3948.30849394529     Delta-E=       -0.014893966789 Rises=F Damp=F
 DIIS: error= 1.30D-03 at cycle   6 NSaved=   6.
 NSaved= 6 IEnMin= 6 EnMin= -3948.30849394529     IErMin= 6 ErrMin= 1.30D-03
 ErrMax= 1.30D-03 EMaxC= 1.00D-01 BMatC= 3.35D-02 BMatP= 8.11D-02
 IDIUse=3 WtCom= 9.87D-01 WtEn= 1.30D-02
 Coeff-Com: -0.132D-01 0.264D-01 0.857D-01 0.147D+00 0.364D+00 0.390D+00
 Coeff-En:   0.000D+00 0.000D+00 0.000D+00 0.000D+00 0.367D+00 0.633D+00
 Coeff:     -0.131D-01 0.261D-01 0.846D-01 0.145D+00 0.364D+00 0.394D+00
 Gap=     0.138 Goal=   None    Shift=    0.000
 Gap=     0.009 Goal=   None    Shift=    0.000
 RMSDP=1.81D-04 MaxDP=2.43D-02 DE=-1.49D-02 OVMax= 3.51D-01

 Cycle   7  Pass 0  IDiag  1:
 RMSU=  3.56D-05    CP:  9.34D-01  2.41D+00  5.87D-01  4.78D-01  4.88D-01
                    CP:  6.46D-01
 E= -3948.31905905018     Delta-E=       -0.010565104887 Rises=F Damp=F
 DIIS: error= 5.10D-04 at cycle   7 NSaved=   7.
 NSaved= 7 IEnMin= 7 EnMin= -3948.31905905018     IErMin= 7 ErrMin= 5.10D-04
 ErrMax= 5.10D-04 EMaxC= 1.00D-01 BMatC= 4.45D-03 BMatP= 3.35D-02
 IDIUse=3 WtCom= 9.95D-01 WtEn= 5.10D-03
 Coeff-Com:  0.545D-02-0.104D-01 0.150D-01 0.173D-01 0.191D+00 0.325D+00
 Coeff-Com:  0.457D+00
 Coeff-En:   0.000D+00 0.000D+00 0.000D+00 0.000D+00 0.000D+00 0.121D+00
 Coeff-En:   0.879D+00
 Coeff:      0.542D-02-0.103D-01 0.149D-01 0.172D-01 0.190D+00 0.324D+00
 Coeff:      0.459D+00
 Gap=     0.137 Goal=   None    Shift=    0.000
 Gap=     0.014 Goal=   None    Shift=    0.000
 RMSDP=4.78D-05 MaxDP=5.46D-03 DE=-1.06D-02 OVMax= 6.69D-02

 Cycle   8  Pass 0  IDiag  1:
 RMSU=  1.41D-05    CP:  9.34D-01  2.42D+00  5.78D-01  5.11D-01  4.17D-01
                    CP:  8.04D-01  6.96D-01
 E= -3948.32020907983     Delta-E=       -0.001150029653 Rises=F Damp=F
 DIIS: error= 3.54D-04 at cycle   8 NSaved=   8.
 NSaved= 8 IEnMin= 8 EnMin= -3948.32020907983     IErMin= 8 ErrMin= 3.54D-04
 ErrMax= 3.54D-04 EMaxC= 1.00D-01 BMatC= 8.48D-04 BMatP= 4.45D-03
 IDIUse=3 WtCom= 9.96D-01 WtEn= 3.54D-03
 Coeff-Com:  0.459D-02-0.876D-02 0.257D-02-0.508D-02 0.946D-01 0.185D+00
 Coeff-Com:  0.340D+00 0.388D+00
 Coeff-En:   0.000D+00 0.000D+00 0.000D+00 0.000D+00 0.000D+00 0.000D+00
 Coeff-En:   0.168D+00 0.832D+00
 Coeff:      0.458D-02-0.872D-02 0.257D-02-0.506D-02 0.942D-01 0.184D+00
 Coeff:      0.339D+00 0.389D+00
 Gap=     0.135 Goal=   None    Shift=    0.000
 Gap=     0.015 Goal=   None    Shift=    0.000
 RMSDP=1.81D-05 MaxDP=2.07D-03 DE=-1.15D-03 OVMax= 2.00D-02

 Cycle   9  Pass 0  IDiag  1:
 RMSU=  5.60D-06    CP:  9.34D-01  2.42D+00  5.78D-01  5.11D-01  4.25D-01
                    CP:  7.96D-01  7.67D-01  4.69D-01
 E= -3948.32044332170     Delta-E=       -0.000234241870 Rises=F Damp=F
 DIIS: error= 9.23D-05 at cycle   9 NSaved=   9.
 NSaved= 9 IEnMin= 9 EnMin= -3948.32044332170     IErMin= 9 ErrMin= 9.23D-05
 ErrMax= 9.23D-05 EMaxC= 1.00D-01 BMatC= 1.31D-04 BMatP= 8.48D-04
 IDIUse=1 WtCom= 1.00D+00 WtEn= 0.00D+00
 Coeff-Com:  0.175D-02-0.323D-02-0.379D-03-0.893D-02 0.333D-01 0.705D-01
 Coeff-Com:  0.157D+00 0.288D+00 0.462D+00
 Coeff:      0.175D-02-0.323D-02-0.379D-03-0.893D-02 0.333D-01 0.705D-01
 Coeff:      0.157D+00 0.288D+00 0.462D+00
 Gap=     0.135 Goal=   None    Shift=    0.000
 Gap=     0.016 Goal=   None    Shift=    0.000
 RMSDP=5.98D-06 MaxDP=5.37D-04 DE=-2.34D-04 OVMax= 5.21D-03

 Initial convergence to 1.0D-05 achieved.  Increase integral accuracy.
 Cycle  10  Pass 1  IDiag  1:
 E= -3948.32058322709     Delta-E=       -0.000139905391 Rises=F Damp=F
 DIIS: error= 3.08D-04 at cycle   1 NSaved=   1.
 NSaved= 1 IEnMin= 1 EnMin= -3948.32058322709     IErMin= 1 ErrMin= 3.08D-04
 ErrMax= 3.08D-04 EMaxC= 1.00D-01 BMatC= 5.03D-04 BMatP= 5.03D-04
 IDIUse=3 WtCom= 9.97D-01 WtEn= 3.08D-03
 Coeff-Com:  0.100D+01
 Coeff-En:   0.100D+01
 Coeff:      0.100D+01
 Gap=     0.135 Goal=   None    Shift=    0.000
 Gap=     0.016 Goal=   None    Shift=    0.000
 RMSDP=5.98D-06 MaxDP=5.37D-04 DE=-1.40D-04 OVMax= 1.56D-02

 Cycle  11  Pass 1  IDiag  1:
 RMSU=  1.19D-04    CP:  9.99D-01
 E= -3948.32061792615     Delta-E=       -0.000034699053 Rises=F Damp=F
 DIIS: error= 1.43D-04 at cycle   2 NSaved=   2.
 NSaved= 2 IEnMin= 2 EnMin= -3948.32061792615     IErMin= 2 ErrMin= 1.43D-04
 ErrMax= 1.43D-04 EMaxC= 1.00D-01 BMatC= 2.77D-04 BMatP= 5.03D-04
 IDIUse=3 WtCom= 9.99D-01 WtEn= 1.43D-03
 Coeff-Com:  0.381D+00 0.619D+00
 Coeff-En:   0.339D+00 0.661D+00
 Coeff:      0.381D+00 0.619D+00
 Gap=     0.136 Goal=   None    Shift=    0.000
 Gap=     0.016 Goal=   None    Shift=    0.000
 RMSDP=2.78D-05 MaxDP=2.94D-03 DE=-3.47D-05 OVMax= 4.90D-02

 Cycle  12  Pass 1  IDiag  1:
 RMSU=  9.80D-06    CP:  9.99D-01  9.95D-01
 E= -3948.32040630115     Delta-E=        0.000211625000 Rises=F Damp=F
 DIIS: error= 2.62D-04 at cycle   3 NSaved=   3.
 NSaved= 3 IEnMin= 2 EnMin= -3948.32061792615     IErMin= 2 ErrMin= 1.43D-04
 ErrMax= 2.62D-04 EMaxC= 1.00D-01 BMatC= 9.36D-04 BMatP= 2.77D-04
 IDIUse=3 WtCom= 3.82D-01 WtEn= 6.18D-01
 Coeff-Com:  0.295D-01 0.635D+00 0.336D+00
 Coeff-En:   0.000D+00 0.696D+00 0.304D+00
 Coeff:      0.113D-01 0.673D+00 0.316D+00
 Gap=     0.136 Goal=   None    Shift=    0.000
 Gap=     0.016 Goal=   None    Shift=    0.000
 RMSDP=2.07D-05 MaxDP=2.31D-03 DE= 2.12D-04 OVMax= 3.94D-02

 Cycle  13  Pass 1  IDiag  1:
 RMSU=  3.38D-06    CP:  9.99D-01  1.01D+00  2.82D-01
 E= -3948.32067915711     Delta-E=       -0.000272855959 Rises=F Damp=F
 DIIS: error= 9.20D-05 at cycle   4 NSaved=   4.
 NSaved= 4 IEnMin= 4 EnMin= -3948.32067915711     IErMin= 4 ErrMin= 9.20D-05
 ErrMax= 9.20D-05 EMaxC= 1.00D-01 BMatC= 8.38D-05 BMatP= 2.77D-04
 IDIUse=1 WtCom= 1.00D+00 WtEn= 0.00D+00
 Coeff-Com: -0.408D-02 0.491D+00 0.239D+00 0.275D+00
 Coeff:     -0.408D-02 0.491D+00 0.239D+00 0.275D+00
 Gap=     0.135 Goal=   None    Shift=    0.000
 Gap=     0.016 Goal=   None    Shift=    0.000
 RMSDP=5.04D-06 MaxDP=8.75D-04 DE=-2.73D-04 OVMax= 7.51D-03

 Cycle  14  Pass 1  IDiag  1:
 RMSU=  7.82D-07    CP:  9.99D-01  1.01D+00  3.53D-01  1.75D-01
 E= -3948.32070332919     Delta-E=       -0.000024172085 Rises=F Damp=F
 DIIS: error= 1.55D-05 at cycle   5 NSaved=   5.
 NSaved= 5 IEnMin= 5 EnMin= -3948.32070332919     IErMin= 5 ErrMin= 1.55D-05
 ErrMax= 1.55D-05 EMaxC= 1.00D-01 BMatC= 2.69D-06 BMatP= 8.38D-05
 IDIUse=1 WtCom= 1.00D+00 WtEn= 0.00D+00
 Coeff-Com: -0.428D-02 0.305D+00 0.140D+00 0.204D+00 0.355D+00
 Coeff:     -0.428D-02 0.305D+00 0.140D+00 0.204D+00 0.355D+00
 Gap=     0.135 Goal=   None    Shift=    0.000
 Gap=     0.016 Goal=   None    Shift=    0.000
 RMSDP=6.96D-07 MaxDP=1.07D-04 DE=-2.42D-05 OVMax= 6.56D-04

 Cycle  15  Pass 1  IDiag  1:
 RMSU=  3.85D-07    CP:  9.99D-01  1.01D+00  3.47D-01  2.39D-01  8.70D-01
 E= -3948.32070406842     Delta-E=       -0.000000739226 Rises=F Damp=F
 DIIS: error= 1.07D-05 at cycle   6 NSaved=   6.
 NSaved= 6 IEnMin= 6 EnMin= -3948.32070406842     IErMin= 6 ErrMin= 1.07D-05
 ErrMax= 1.07D-05 EMaxC= 1.00D-01 BMatC= 5.69D-07 BMatP= 2.69D-06
 IDIUse=1 WtCom= 1.00D+00 WtEn= 0.00D+00
 Coeff-Com: -0.137D-02 0.341D-01 0.886D-03 0.646D-01 0.163D+00 0.738D+00
 Coeff:     -0.137D-02 0.341D-01 0.886D-03 0.646D-01 0.163D+00 0.738D+00
 Gap=     0.135 Goal=   None    Shift=    0.000
 Gap=     0.016 Goal=   None    Shift=    0.000
 RMSDP=6.87D-07 MaxDP=8.87D-05 DE=-7.39D-07 OVMax= 9.95D-04

 Cycle  16  Pass 1  IDiag  1:
 RMSU=  2.86D-07    CP:  9.99D-01  1.01D+00  3.47D-01  2.49D-01  1.21D+00
                    CP:  7.90D-01
 E= -3948.32070426139     Delta-E=       -0.000000192969 Rises=F Damp=F
 DIIS: error= 5.97D-06 at cycle   7 NSaved=   7.
 NSaved= 7 IEnMin= 7 EnMin= -3948.32070426139     IErMin= 7 ErrMin= 5.97D-06
 ErrMax= 5.97D-06 EMaxC= 1.00D-01 BMatC= 6.42D-07 BMatP= 5.69D-07
 IDIUse=1 WtCom= 1.00D+00 WtEn= 0.00D+00
 Coeff-Com:  0.236D-02-0.254D+00-0.142D+00-0.102D+00-0.208D+00 0.995D+00
 Coeff-Com:  0.709D+00
 Coeff:      0.236D-02-0.254D+00-0.142D+00-0.102D+00-0.208D+00 0.995D+00
 Coeff:      0.709D+00
 Gap=     0.135 Goal=   None    Shift=    0.000
 Gap=     0.016 Goal=   None    Shift=    0.000
 RMSDP=7.15D-07 MaxDP=9.19D-05 DE=-1.93D-07 OVMax= 5.64D-04

 Cycle  17  Pass 1  IDiag  1:
 RMSU=  1.79D-07    CP:  9.99D-01  1.01D+00  3.50D-01  2.68D-01  1.51D+00
                    CP:  1.61D+00  9.19D-01
 E= -3948.32070458053     Delta-E=       -0.000000319138 Rises=F Damp=F
 DIIS: error= 4.48D-06 at cycle   8 NSaved=   8.
 NSaved= 8 IEnMin= 8 EnMin= -3948.32070458053     IErMin= 8 ErrMin= 4.48D-06
 ErrMax= 4.48D-06 EMaxC= 1.00D-01 BMatC= 8.14D-08 BMatP= 5.69D-07
 IDIUse=1 WtCom= 1.00D+00 WtEn= 0.00D+00
 Coeff-Com:  0.184D-02-0.176D+00-0.966D-01-0.759D-01-0.182D+00 0.565D+00
 Coeff-Com:  0.489D+00 0.474D+00
 Coeff:      0.184D-02-0.176D+00-0.966D-01-0.759D-01-0.182D+00 0.565D+00
 Coeff:      0.489D+00 0.474D+00
 Gap=     0.135 Goal=   None    Shift=    0.000
 Gap=     0.016 Goal=   None    Shift=    0.000
 RMSDP=2.13D-07 MaxDP=2.46D-05 DE=-3.19D-07 OVMax= 1.99D-04

 Cycle  18  Pass 1  IDiag  1:
 RMSU=  8.30D-08    CP:  9.99D-01  1.01D+00  3.52D-01  2.66D-01  1.60D+00
                    CP:  1.70D+00  1.09D+00  8.93D-01
 E= -3948.32070461308     Delta-E=       -0.000000032556 Rises=F Damp=F
 DIIS: error= 1.21D-06 at cycle   9 NSaved=   9.
 NSaved= 9 IEnMin= 9 EnMin= -3948.32070461308     IErMin= 9 ErrMin= 1.21D-06
 ErrMax= 1.21D-06 EMaxC= 1.00D-01 BMatC= 1.61D-08 BMatP= 8.14D-08
 IDIUse=1 WtCom= 1.00D+00 WtEn= 0.00D+00
 Coeff-Com:  0.612D-03-0.522D-01-0.284D-01-0.231D-01-0.736D-01 0.107D+00
 Coeff-Com:  0.143D+00 0.306D+00 0.620D+00
 Coeff:      0.612D-03-0.522D-01-0.284D-01-0.231D-01-0.736D-01 0.107D+00
 Coeff:      0.143D+00 0.306D+00 0.620D+00
 Gap=     0.135 Goal=   None    Shift=    0.000
 Gap=     0.016 Goal=   None    Shift=    0.000
 RMSDP=9.52D-08 MaxDP=1.14D-05 DE=-3.26D-08 OVMax= 2.64D-05

 Cycle  19  Pass 1  IDiag  1:
 RMSU=  3.90D-08    CP:  9.99D-01  1.01D+00  3.52D-01  2.71D-01  1.62D+00
                    CP:  1.76D+00  1.13D+00  1.07D+00  8.74D-01
 E= -3948.32070462189     Delta-E=       -0.000000008808 Rises=F Damp=F
 DIIS: error= 5.04D-07 at cycle  10 NSaved=  10.
 NSaved=10 IEnMin=10 EnMin= -3948.32070462189     IErMin=10 ErrMin= 5.04D-07
 ErrMax= 5.04D-07 EMaxC= 1.00D-01 BMatC= 5.09D-09 BMatP= 1.61D-08
 IDIUse=1 WtCom= 1.00D+00 WtEn= 0.00D+00
 Coeff-Com: -0.301D-03 0.329D-01 0.179D-01 0.149D-01 0.208D-01-0.148D+00
 Coeff-Com: -0.781D-01 0.204D-01 0.430D+00 0.690D+00
 Coeff:     -0.301D-03 0.329D-01 0.179D-01 0.149D-01 0.208D-01-0.148D+00
 Coeff:     -0.781D-01 0.204D-01 0.430D+00 0.690D+00
 Gap=     0.135 Goal=   None    Shift=    0.000
 Gap=     0.016 Goal=   None    Shift=    0.000
 RMSDP=5.56D-08 MaxDP=6.96D-06 DE=-8.81D-09 OVMax= 3.13D-05

 Cycle  20  Pass 1  IDiag  1:
 RMSU=  2.99D-08    CP:  9.99D-01  1.01D+00  3.52D-01  2.71D-01  1.63D+00
                    CP:  1.78D+00  1.16D+00  1.13D+00  1.07D+00  1.16D+00
 E= -3948.32070462511     Delta-E=       -0.000000003216 Rises=F Damp=F
 DIIS: error= 5.12D-07 at cycle  11 NSaved=  11.
 NSaved=11 IEnMin=11 EnMin= -3948.32070462511     IErMin=10 ErrMin= 5.04D-07
 ErrMax= 5.12D-07 EMaxC= 1.00D-01 BMatC= 1.59D-09 BMatP= 5.09D-09
 IDIUse=1 WtCom= 1.00D+00 WtEn= 0.00D+00
 Coeff-Com: -0.362D-03 0.356D-01 0.194D-01 0.158D-01 0.350D-01-0.134D+00
 Coeff-Com: -0.867D-01-0.771D-01 0.129D+00 0.451D+00 0.612D+00
 Coeff:     -0.362D-03 0.356D-01 0.194D-01 0.158D-01 0.350D-01-0.134D+00
 Coeff:     -0.867D-01-0.771D-01 0.129D+00 0.451D+00 0.612D+00
 Gap=     0.135 Goal=   None    Shift=    0.000
 Gap=     0.016 Goal=   None    Shift=    0.000
 RMSDP=3.54D-08 MaxDP=4.29D-06 DE=-3.22D-09 OVMax= 3.65D-05

 Cycle  21  Pass 1  IDiag  1:
 RMSU=  1.34D-08    CP:  9.99D-01  1.01D+00  3.52D-01  2.71D-01  1.63D+00
                    CP:  1.78D+00  1.18D+00  1.16D+00  1.14D+00  1.56D+00
                    CP:  1.04D+00
 E= -3948.32070462551     Delta-E=       -0.000000000404 Rises=F Damp=F
 DIIS: error= 2.69D-07 at cycle  12 NSaved=  12.
 NSaved=12 IEnMin=12 EnMin= -3948.32070462551     IErMin=12 ErrMin= 2.69D-07
 ErrMax= 2.69D-07 EMaxC= 1.00D-01 BMatC= 7.91D-10 BMatP= 1.59D-09
 IDIUse=1 WtCom= 1.00D+00 WtEn= 0.00D+00
 Coeff-Com: -0.165D-03 0.152D-01 0.823D-02 0.671D-02 0.215D-01-0.446D-01
 Coeff-Com: -0.341D-01-0.757D-01-0.739D-01 0.652D-01 0.494D+00 0.617D+00
 Coeff:     -0.165D-03 0.152D-01 0.823D-02 0.671D-02 0.215D-01-0.446D-01
 Coeff:     -0.341D-01-0.757D-01-0.739D-01 0.652D-01 0.494D+00 0.617D+00
 Gap=     0.135 Goal=   None    Shift=    0.000
 Gap=     0.016 Goal=   None    Shift=    0.000
 RMSDP=2.36D-08 MaxDP=3.04D-06 DE=-4.04D-10 OVMax= 1.71D-05

 Cycle  22  Pass 1  IDiag  1:
 RMSU=  9.60D-09    CP:  9.99D-01  1.01D+00  3.52D-01  2.70D-01  1.63D+00
                    CP:  1.78D+00  1.18D+00  1.17D+00  1.20D+00  1.66D+00
                    CP:  1.35D+00  5.70D-01
 E= -3948.32070462617     Delta-E=       -0.000000000666 Rises=F Damp=F
 DIIS: error= 1.28D-07 at cycle  13 NSaved=  13.
 NSaved=13 IEnMin=13 EnMin= -3948.32070462617     IErMin=13 ErrMin= 1.28D-07
 ErrMax= 1.28D-07 EMaxC= 1.00D-01 BMatC= 4.21D-10 BMatP= 7.91D-10
 IDIUse=1 WtCom= 1.00D+00 WtEn= 0.00D+00
 Coeff-Com: -0.292D-04 0.199D-02 0.111D-02 0.583D-03 0.755D-02-0.674D-03
 Coeff-Com: -0.386D-02-0.398D-01-0.919D-01-0.762D-01 0.236D+00 0.536D+00
 Coeff-Com:  0.429D+00
 Coeff:     -0.292D-04 0.199D-02 0.111D-02 0.583D-03 0.755D-02-0.674D-03
 Coeff:     -0.386D-02-0.398D-01-0.919D-01-0.762D-01 0.236D+00 0.536D+00
 Coeff:      0.429D+00
 Gap=     0.135 Goal=   None    Shift=    0.000
 Gap=     0.016 Goal=   None    Shift=    0.000
 RMSDP=1.30D-08 MaxDP=1.46D-06 DE=-6.66D-10 OVMax= 1.76D-05

 Cycle  23  Pass 1  IDiag  1:
 RMSU=  3.68D-09    CP:  9.99D-01  1.01D+00  3.52D-01  2.70D-01  1.62D+00
                    CP:  1.78D+00  1.18D+00  1.18D+00  1.21D+00  1.75D+00
                    CP:  1.41D+00  8.68D-01  5.38D-01
 E= -3948.32070462627     Delta-E=       -0.000000000091 Rises=F Damp=F
 DIIS: error= 6.00D-08 at cycle  14 NSaved=  14.
 NSaved=14 IEnMin=14 EnMin= -3948.32070462627     IErMin=14 ErrMin= 6.00D-08
 ErrMax= 6.00D-08 EMaxC= 1.00D-01 BMatC= 4.25D-11 BMatP= 4.21D-10
 IDIUse=1 WtCom= 1.00D+00 WtEn= 0.00D+00
 Coeff-Com:  0.166D-04-0.198D-02-0.101D-02-0.115D-02 0.559D-03 0.960D-02
 Coeff-Com:  0.469D-02-0.997D-02-0.444D-01-0.643D-01 0.467D-01 0.220D+00
 Coeff-Com:  0.262D+00 0.579D+00
 Coeff:      0.166D-04-0.198D-02-0.101D-02-0.115D-02 0.559D-03 0.960D-02
 Coeff:      0.469D-02-0.997D-02-0.444D-01-0.643D-01 0.467D-01 0.220D+00
 Coeff:      0.262D+00 0.579D+00
 Gap=     0.135 Goal=   None    Shift=    0.000
 Gap=     0.016 Goal=   None    Shift=    0.000
 RMSDP=3.67D-09 MaxDP=5.01D-07 DE=-9.09D-11 OVMax= 1.72D-06

 SCF Done:  E(UB3LYP) =  -3948.32070463     A.U. after   23 cycles
             Convg  =    0.3669D-08             -V/T =  2.0066
 <Sx>= 0.0000 <Sy>= 0.0000 <Sz>= 0.5000 <S**2>= 0.7557 S= 0.5029
 <L.S>= 0.000000000000E+00
 KE= 3.922529778646D+03 PE=-4.241145828749D+04 EE= 1.790144553540D+04
[...]
    31  C    0.000000   0.000000   0.000000   0.000000   0.000000
    32  C    0.000000   0.000000   0.000000   0.000000   0.000000
    33  C    0.000000   0.000000   0.000000   0.000000   0.000000
    34  C    0.000000   0.000000   0.000000   0.000001  -0.000001
    35  C    0.000001  -0.000001   0.000000   0.000000   0.000000
    36  C    0.000000   0.000000   0.000000   0.000000   0.000000
    37  C    0.000000   0.000000   0.000000   0.000000   0.000000
    38  C    0.000000   0.000000   0.000000   0.000000   0.000000
    39  C    0.000000   0.000000   0.000000   0.000000   0.000000
    40  C    0.000000   0.000000   0.000000   0.000000   0.000000
    41  C    0.000000   0.000000   0.000000   0.000000   0.000000
    42  C    0.000000   0.000000   0.000000   0.000000   0.000000
    43  C    0.000000   0.000000   0.000000  -0.000013   0.000002
    44  C    0.000000   0.000000  -0.000003  -0.000069  -0.000046
    45  C    0.000000   0.000000  -0.000001   0.000067   0.000041
    46  C    0.000000   0.000000   0.000000   0.000001   0.000000
    47  C    0.000000   0.000000   0.000000   0.000000  -0.000001
    48  C   -0.000015   0.000004   0.000000   0.000000   0.000000
    49  C   -0.000065  -0.000042   0.000000   0.000000   0.000000
    50  C    0.000073   0.000043   0.000000   0.000000   0.000000
    51  C    0.000002  -0.000002   0.000000   0.000000   0.000000
    52  C    0.000000  -0.000001   0.000000   0.000000   0.000000
    53  C    0.000000   0.000000   0.000000   0.000000   0.000000
    54  C    0.000000   0.000000   0.000000   0.000000   0.000000
    55  C    0.000000   0.000000   0.000000   0.000000   0.000000
    56  C    0.000000   0.000000   0.000000   0.000000   0.000000
    57  C    0.000000   0.000000   0.000000   0.000000   0.000000
    58  C    0.000000   0.000000   0.000000   0.000000   0.000000
    59  C    0.000000   0.000000   0.000000   0.000000   0.000000
    60  C    0.000000   0.000000   0.000000   0.000000   0.000000
    61  C    0.000000   0.000000   0.000000   0.000000   0.000000
    62  C    0.000000   0.000000   0.000000   0.000000   0.000000
    63  C    0.000000   0.000000   0.000000   0.000000   0.000000
    64  C    0.000000   0.000000   0.000000   0.000000   0.000000
    65  C    0.000000   0.000000   0.000000   0.000000   0.000000
    66  C    0.000000   0.000000   0.000000   0.000000   0.000000
    67  C    0.000000   0.000000   0.000000   0.000000   0.000000
    68  C    0.000000   0.000000   0.000000   0.000000   0.000000
    69  C    0.000000   0.000000   0.000000   0.000000   0.000000
    70  C    0.000000   0.000000   0.000000   0.000000   0.000000
    71  C    0.000000   0.000000   0.000000   0.000000   0.000000
    72  C    0.000000   0.000000   0.000000   0.000000   0.000000
    73  C    0.000000   0.000000   0.000000   0.000000   0.000000
    74  C    0.000000   0.000000   0.000000   0.000000   0.000000
    75  C    0.000000   0.000000   0.000000   0.000000   0.000000
    76  C    0.000000   0.000000   0.000000   0.000000   0.000000
    77  C    0.000000   0.000000   0.000000   0.000000   0.000000
    78  H    0.000000   0.000000   0.000000   0.000000   0.000000
    79  H    0.000000   0.000000   0.000000   0.000000   0.000000
    80  H    0.000000   0.000000   0.000000   0.000000   0.000000
    81  H    0.000000   0.000000   0.000000   0.000000   0.000000
    82  H    0.000000   0.000000   0.000000   0.000000   0.000000
    83  H    0.000000   0.000000   0.000000   0.000000   0.000000
    84  H    0.000000   0.000000   0.000000   0.000000   0.000000
    85  H    0.000000   0.000000   0.000000   0.000000   0.000000
    86  H    0.000000   0.000000   0.000000   0.000000   0.000000
    87  H    0.000000   0.000000   0.000000   0.000000   0.000000
    88  H    0.000000   0.000000   0.000000   0.000000   0.000000
    89  H    0.000000   0.000000   0.000000   0.000000   0.000000
    90  H    0.000000   0.000000   0.000000   0.000000   0.000000
    91  H    0.000000   0.000000   0.000000   0.000000   0.000000
    92  H    0.000000   0.000000   0.000000   0.000000   0.000000
    93  H    0.000000   0.000000  -0.000002   0.000014   0.000015
    94  O    0.000000   0.000000   0.000000   0.000000   0.000000
    95  H    0.000000   0.000000   0.000000   0.000000   0.000000
    96  H    0.000000   0.000000   0.000000  -0.000001   0.000001
    97  O    0.000000   0.000000  -0.000001   0.000038   0.000047
    98  H    0.000000   0.000000   0.000000   0.000000   0.000000
    99  H    0.000000   0.000000   0.000000   0.000000   0.000000
   100  H    0.000000   0.000000   0.000000   0.000000   0.000000
   101  H    0.000000   0.000000   0.000000   0.000000   0.000000
   102  H    0.000000   0.000000   0.000000   0.000000   0.000000
   103  H    0.000000   0.000000   0.000000   0.000000   0.000000
   104  O    0.000000   0.000000   0.000000   0.000000   0.000000
   105  H    0.000000   0.000000   0.000000   0.000000   0.000000
   106  O    0.000000   0.000000   0.000000   0.000000   0.000000
   107  H    0.000000   0.000000   0.000000   0.000000   0.000000
   108  H    0.000000   0.000000   0.000000   0.000000   0.000000
   109  H    0.000000   0.000000   0.000000   0.000000   0.000000
   110  O    0.000000   0.000000   0.000000   0.000000   0.000000
   111  H    0.000000   0.000000   0.000000   0.000000   0.000000
   112  H    0.000000   0.000000   0.000000   0.000000   0.000000
   113  H    0.000000   0.000000   0.000000   0.000000   0.000000
   114  H    0.000000   0.000000   0.000000   0.000000   0.000000
   115  O    0.000000   0.000000   0.000000   0.000000   0.000000
   116  H    0.000000   0.000000   0.000000   0.000000   0.000000
   117  O    0.000000   0.000000   0.000000   0.000000   0.000000
   118  H    0.000000   0.000000   0.000000   0.000000   0.000000
   119  H    0.000000   0.000000   0.000000   0.000000   0.000000
   120  H    0.000000   0.000000   0.000000   0.000000   0.000000
   121  H    0.000000   0.000000   0.000000   0.000000   0.000000
   122  H    0.000000   0.000000   0.000000   0.000000   0.000000
   123  O    0.000034   0.000044   0.000000   0.000000   0.000000
   124  H   -0.000001   0.000001   0.000000   0.000000   0.000000
   125  H    0.000000   0.000000   0.000000   0.000000   0.000000
   126  H    0.000011   0.000017   0.000000   0.000000   0.000000
   127  H    0.000000   0.000000   0.000000   0.000000   0.000000
   128  H    0.000000   0.000000   0.000000   0.000000   0.000000
   129  C    0.000000   0.000000   0.000000   0.000000   0.000000
   130  H    0.000000   0.000000   0.000000   0.000000   0.000000
   131  H    0.000000   0.000000   0.000000   0.000000   0.000000
   132  H    0.000000   0.000000   0.000000   0.000000   0.000000
   133  H    0.000000   0.000000   0.000000   0.000000   0.000000
   134  C    0.000000   0.000000   0.000000   0.000000   0.000000
   135  H    0.000000   0.000000   0.000000   0.000000   0.000000
   136  H    0.000000   0.000000   0.000000   0.000000   0.000000
   137  H    0.000000   0.000000   0.000000   0.000000   0.000000
   138  C    0.000000   0.000000   0.000000   0.000000   0.000000
   139  C    0.000000   0.000000   0.000000   0.000000   0.000000
   140  H    0.000000   0.000000   0.000000   0.000000   0.000000
   141  H    0.000000   0.000000   0.000000   0.000000   0.000000
   142  H    0.000000   0.000000   0.000000   0.000000   0.000000
   143  H    0.000000   0.000000   0.000000   0.000000   0.000000
   144  H    0.000000   0.000000   0.000000   0.000000   0.000000
   145  H    0.000000   0.000000   0.000000   0.000000   0.000000
   146  C    0.000000   0.000000   0.000000   0.000000   0.000000
   147  H    0.000000   0.000000   0.000000   0.000000   0.000000
   148  H    0.000000   0.000000   0.000000   0.000000   0.000000
   149  H    0.000000   0.000000   0.000000   0.000000   0.000000
   150  C    0.000000   0.000000   0.000000   0.000000   0.000000
   151  H    0.000000   0.000000   0.000000   0.000000   0.000000
   152  H    0.000000   0.000000   0.000000   0.000000   0.000000
   153  H    0.000000   0.000000   0.000000   0.000000   0.000000
   154  C    0.000000   0.000000   0.000005   0.000051   0.000013
   155  C    0.000043   0.000008   0.000000   0.000000   0.000000
   156  H   -0.000003   0.000004   0.000000   0.000000   0.000000
   157  H   -0.000217   0.000063   0.000000   0.000000   0.000000
   158  H    0.000063  -0.000209   0.000000   0.000000   0.000000
   159  H    0.000000   0.000000  -0.000002  -0.000002   0.000004
   160  H    0.000000   0.000000  -0.000002  -0.000240   0.000071
   161  H    0.000000   0.000000   0.000004   0.000071  -0.000225
 Mulliken atomic spin densities:
              1
     1  C   -0.007159
     2  C    0.010514
     3  C    0.039504
     4  C    0.035907
     5  C    0.011179
     6  C    0.013763
     7  C    0.029394
     8  C    0.043181
     9  C    0.008388
    10  C   -0.001091
    11  C    0.023298
    12  C    0.020469
    13  C    0.000821
    14  C   -0.001651
    15  C    0.024829
    16  C    0.022389
    17  C    0.002320
    18  C    0.003725
    19  C    0.017715
    20  C    0.029158
    21  C   -0.005069
    22  C   -0.008333
    23  C    0.031873
    24  C    0.015893
    25  C    0.006459
    26  N    0.080140
    27  N    0.094262
    28  N    0.084217
    29  N    0.091957
    30  C   -0.007817
    31  C   -0.005650
    32  C   -0.009763
    33  C   -0.007320
    34  C   -0.008533
    35  C   -0.008169
    36  C   -0.008431
    37  C   -0.009907
    38  C    0.021423
    39  C   -0.010692
    40  C    0.027360
    41  C   -0.009138
    42  C    0.021172
    43  C    0.017720
    44  C   -0.007839
    45  C    0.025808
    46  C   -0.010660
    47  C    0.021680
    48  C    0.016594
    49  C   -0.007406
    50  C    0.025460
    51  C   -0.010673
    52  C    0.021423
    53  C    0.021264
    54  C   -0.009442
    55  C    0.030968
    56  C   -0.012740
    57  C    0.025865
    58  C    0.009336
    59  C   -0.003686
    60  C    0.011175
    61  C   -0.004826
    62  C    0.010262
    63  C    0.015660
    64  C   -0.008868
    65  C    0.032398
    66  C   -0.011560
    67  C    0.026163
    68  C    0.015055
    69  C   -0.008782
    70  C    0.032776
    71  C   -0.012479
    72  C    0.028414
    73  C    0.024177
    74  C   -0.010783
    75  C    0.027005
    76  C   -0.006392
    77  C    0.011295
    78  H   -0.000352
    79  H   -0.000326
    80  H   -0.001307
    81  H   -0.000071
    82  H   -0.000177
    83  H   -0.001184
    84  H    0.000073
    85  H   -0.001385
    86  H   -0.000261
    87  H   -0.000993
    88  H   -0.000224
    89  H   -0.000114
    90  H   -0.001346
    91  H   -0.001320
    92  H   -0.001129
    93  H   -0.001072
    94  O   -0.001224
    95  H   -0.000919
    96  H   -0.000724
    97  O   -0.001050
    98  H    0.000439
    99  H   -0.000918
   100  H    0.000453
   101  H   -0.000960
   102  H   -0.001188
   103  H    0.000514
   104  O   -0.000027
   105  H   -0.000694
   106  O   -0.000282
   107  H   -0.000741
   108  H    0.000438
   109  H   -0.001123
   110  O    0.002127
   111  H    0.000320
   112  H   -0.000601
   113  H   -0.001046
   114  H    0.000541
   115  O    0.000200
   116  H   -0.000540
   117  O   -0.001275
   118  H   -0.000858
   119  H    0.000549
   120  H   -0.001132
   121  H   -0.000935
   122  H    0.000521
   123  O   -0.000982
   124  H   -0.000692
   125  H   -0.000487
   126  H   -0.001059
   127  H   -0.001286
   128  H   -0.001117
   129  C    0.000060
   130  H   -0.000073
   131  H   -0.000057
   132  H    0.000001
   133  H    0.000290
   134  C   -0.000178
   135  H    0.000098
   136  H   -0.000003
   137  H    0.000234
   138  C    0.000134
   139  C    0.000028
   140  H    0.000002
   141  H   -0.000026
   142  H   -0.000013
   143  H    0.000006
   144  H   -0.000215
   145  H   -0.000017
   146  C    0.000143
   147  H    0.000000
   148  H   -0.000105
   149  H   -0.000096
   150  C    0.000113
   151  H   -0.000004
   152  H   -0.000099
   153  H   -0.000094
   154  C    0.000092
   155  C    0.000083
   156  H   -0.000003
   157  H   -0.000071
   158  H   -0.000071
   159  H   -0.000003
   160  H   -0.000080
   161  H   -0.000078
 Sum of Mulliken atomic spin densities =   1.00000
 Electronic spatial extent (au):  <R**2>=         101744.8779
 Charge=              1.0000 electrons
 Dipole moment (field-independent basis, Debye):
    X=             -1.0564    Y=              1.4507    Z=              1.7001  Tot=              2.4720
 Quadrupole moment (field-independent basis, Debye-Ang):
   XX=           -365.5061   YY=           -404.8904   ZZ=           -454.7824
   XY=             -1.7303   XZ=            -23.1720   YZ=            -19.1547
 Traceless Quadrupole moment (field-independent basis, Debye-Ang):
   XX=             42.8869   YY=              3.5026   ZZ=            -46.3894
   XY=             -1.7303   XZ=            -23.1720   YZ=            -19.1547
 Octapole moment (field-independent basis, Debye-Ang**2):
  XXX=           -149.4708  YYY=            164.9737  ZZZ=              4.2671  XYY=             84.8925
  XXY=            114.9361  XXZ=             97.1352  XZZ=            -50.9564  YZZ=            143.9496
  YYZ=             78.1159  XYZ=            -64.9554
 Hexadecapole moment (field-independent basis, Debye-Ang**3):
 XXXX=         -55762.4712 YYYY=         -43276.7595 ZZZZ=         -19838.1121 XXXY=          -1482.1175
 XXXZ=          -3170.3300 YYYX=            327.0111 YYYZ=              9.0082 ZZZX=           -664.6126
 ZZZY=           -112.6247 XXYY=         -16047.1354 XXZZ=         -11315.7586 YYZZ=         -10056.5790
 XXYZ=          -1058.6118 YYXZ=            532.7532 ZZXY=             96.2036
 N-N= 1.663916226882D+04 E-N=-6.358656029177D+04  KE= 5.882910462836D+03
 Leave Link  601 at Tue Feb  3 21:19:41 2015, MaxMem= 2147483648 cpu:     112.4
 (Enter /opt/g09/l9999.exe)
 1\1\GINC-CHPC-SCANDIUM\SP\UB3LYP\CC-pVDZ\C81H68N4O8(1+,2)\JARVIST\03-F
 eb-2015\0\\#p sp B3LYP/cc-pVDZ\\Auto Spiro; and yes I said yes I will 
 Yes.\\1,2\C,0,0.175792,-0.131311,0.013942\C,0,-0.399155,-1.189373,-0.9
 39345\C,0,-0.152575,-0.831818,-2.277952\C,0,0.550474,0.453299,-2.30129
 7\C,0,0.737122,0.892035,-0.975397\C,0,-0.875002,0.404639,0.99084\C,0,-
 0.511251,0.108103,2.319409\C,0,0.784866,-0.573948,2.311164\C,0,1.22688
 8,-0.692915,0.979959\C,0,-2.065738,1.048314,0.694845\C,0,-2.91566,1.43
 9203,1.74645\C,0,-2.542766,1.162234,3.075189\C,0,-1.356627,0.490414,3.
 363957\C,0,1.00863,1.246127,-3.356502\C,0,1.636404,2.458827,-3.080995\
 C,0,1.839592,2.88799,-1.755636\C,0,1.385044,2.084144,-0.693332\C,0,-1.
 119882,-2.326876,-0.611232\C,0,-1.607727,-3.156802,-1.640349\C,0,-1.30
 9092,-2.829449,-2.980328\C,0,-0.601932,-1.672411,-3.299808\C,0,1.59304
 ,-1.058114,3.342285\C,0,2.82767,-1.625759,3.039386\C,0,3.298891,-1.688
 548,1.711153\C,0,2.469971,-1.222032,0.670768\N,0,-4.144836,2.100248,1.
 473347\N,0,2.500651,4.119807,-1.498637\N,0,-2.380896,-4.301834,-1.3336
 45\N,0,4.595814,-2.195083,1.447928\C,0,5.637537,-1.996591,2.405529\C,0
 ,-2.182598,-4.974696,-0.091177\C,0,4.935919,-2.791661,0.201383\C,0,-3.
 437693,-4.746147,-2.175633\C,0,-4.214397,3.09127,0.45774\C,0,-5.312866
 ,1.737554,2.198551\C,0,3.638825,4.486481,-2.270935\C,0,2.065927,4.9621
 59,-0.441437\C,0,3.777528,5.803528,-2.74671\C,0,4.894065,6.144962,-3.4
 99424\C,0,5.881002,5.20453,-3.813338\C,0,5.734616,3.893991,-3.344325\C
 ,0,4.623692,3.541091,-2.567504\C,0,-5.322281,3.1502,-0.392883\C,0,-5.4
 06129,4.133821,-1.385696\C,0,-4.369294,5.05797,-1.555248\C,0,-3.258512
 ,4.97999,-0.708744\C,0,-3.170289,4.021763,0.294059\C,0,-6.185591,2.724
 531,2.664802\C,0,-7.344237,2.374233,3.368523\C,0,-7.630168,1.030002,3.
 63478\C,0,-6.742674,0.051914,3.174092\C,0,-5.599872,0.383984,2.456864\
 C,0,3.000753,5.624819,0.359674\C,0,2.580462,6.47439,1.390408\C,0,1.217
 085,6.653264,1.648607\C,0,0.290762,5.973454,0.850504\C,0,0.691899,5.14
 3266,-0.188979\C,0,-0.986822,-5.644473,0.171486\C,0,-0.775115,-6.30340
 4,1.383742\C,0,-1.784522,-6.305161,2.343205\C,0,-2.991895,-5.6431,2.10
 4354\C,0,-3.195836,-4.964277,0.897865\C,0,-4.261938,-3.816913,-2.83557
 8\C,0,-5.299718,-4.264628,-3.654087\C,0,-5.542871,-5.638853,-3.80609\C
 ,0,-4.734071,-6.546543,-3.134183\C,0,-3.677962,-6.116561,-2.326922\C,0
 ,4.057868,-3.702058,-0.415462\C,0,4.406919,-4.285122,-1.636916\C,0,5.6
 4078,-3.993763,-2.237408\C,0,6.50417,-3.102447,-1.612982\C,0,6.161332,
 -2.489251,-0.406927\C,0,5.875395,-0.734089,2.958403\C,0,6.902661,-0.57
 7501,3.892322\C,0,7.703498,-1.650401,4.266223\C,0,7.47009,-2.914168,3.
 702585\C,0,6.433475,-3.091235,2.782922\H,0,2.812475,-1.259209,-0.35766
 1\H,0,-1.33242,-2.56601,0.425461\H,0,-1.655019,-3.483734,-3.773262\H,0
 ,-0.403356,-1.437711,-4.342704\H,0,0.867916,0.936389,-4.388969\H,0,1.9
 81165,3.086395,-3.896254\H,0,1.270213,-1.000671,4.37886\H,0,3.452607,-
 2.006734,3.839525\H,0,-1.092135,0.286441,4.3985\H,0,-3.196153,1.478264
 ,3.881952\H,0,1.544649,2.401276,0.332219\H,0,-2.348825,1.249678,-0.333
 434\H,0,5.887,-4.46568,-3.182822\H,0,-6.35844,-5.959856,-4.445685\H,0,
 6.735534,5.498007,-4.411288\H,0,-4.412392,5.823408,-2.320773\O,0,6.627
 095,2.884698,-3.573773\H,0,4.544352,2.522135,-2.205499\H,0,-6.135925,2
 .440327,-0.297587\O,0,-6.539517,4.091826,-2.149577\H,0,4.998233,7.1623
 92,-3.867408\H,0,3.012718,6.539244,-2.523329\H,0,-2.45205,5.698291,-0.
 832015\H,0,-2.306057,3.984134,0.948015\H,0,6.833484,-1.778296,0.060012
 \H,0,7.455678,-2.862531,-2.080161\O,0,3.620076,-5.170547,-2.317117\H,0
 ,3.117296,-3.935077,0.067414\O,0,-6.147892,-3.436835,-4.335565\H,0,-4.
 084823,-2.760341,-2.684239\H,0,-4.915529,-7.611974,-3.250261\H,0,-3.04
 267,-6.835308,-1.820738\O,0,-4.320324,-4.2638,0.58995\H,0,0.163032,-6.
 818441,1.568104\H,0,-0.223196,-5.641875,-0.599912\H,0,5.263844,0.10991
 9,2.658311\H,0,7.089284,0.403456,4.321117\O,0,8.299329,-3.913265,4.126
 925\H,0,6.226817,-4.05927,2.343937\O,0,3.587759,7.069935,2.097652\H,0,
 4.064598,5.494416,0.197678\H,0,-0.770127,6.112473,1.042797\H,0,-0.0424
 11,4.63438,-0.803554\H,0,-4.930316,-0.38658,2.090626\H,0,-6.963777,-0.
 994294,3.370323\O,0,-8.121547,3.425397,3.767335\H,0,-5.983317,3.7745,2
 .48583\H,0,-1.640463,-6.819785,3.289272\H,0,-8.518593,0.739174,4.18242
 9\H,0,0.871636,7.300343,2.445827\H,0,8.5112,-1.538837,4.982228\C,0,-5.
 950807,-2.036052,-4.228729\H,0,-4.955615,-1.738758,-4.58487\H,0,-6.079
 938,-1.685857,-3.196062\H,0,-6.713015,-1.577555,-4.861782\H,0,-3.76146
 9,-5.644795,2.867839\C,0,-5.388865,-4.252389,1.522533\H,0,-5.766792,-5
 .264957,1.714899\H,0,-6.176938,-3.654131,1.062214\H,0,-5.08944,-3.7914
 58,2.47342\C,0,2.316899,-5.431269,-1.823144\C,0,8.126374,-5.209864,3.5
 77786\H,0,8.895107,-5.833982,4.037436\H,0,8.262209,-5.209248,2.488292\
 H,0,7.136404,-5.621499,3.815744\H,0,1.856548,-6.113848,-2.540355\H,0,1
 .718791,-4.513122,-1.758885\H,0,2.347508,-5.913009,-0.835949\C,0,7.796
 179,3.180869,-4.318591\H,0,8.363127,2.249275,-4.368633\H,0,8.405972,3.
 950259,-3.826203\H,0,7.555039,3.512191,-5.337627\C,0,3.236137,7.914798
 ,3.180097\H,0,4.178749,8.267097,3.603584\H,0,2.672869,7.372367,3.95124
 9\H,0,2.645357,8.778057,2.845251\C,0,-6.678627,5.04272,-3.191677\C,0,-
 9.298418,3.146212,4.506628\H,0,-9.753607,4.114891,4.721771\H,0,-9.0719
 08,2.634833,5.451908\H,0,-10.004741,2.535403,3.928485\H,0,-7.636076,4.
 825801,-3.669407\H,0,-5.87433,4.951231,-3.933927\H,0,-6.693064,6.06998
 4,-2.803535\\Version=EM64L-G09RevA.02\State=2-A\HF=-3948.3207046\S2=0.
 755715\S2-1=0.\S2A=0.750032\RMSD=3.669e-09\Dipole=-0.4156318,0.5707661
 ,0.6688626\Quadrupole=31.8853341,2.6040631,-34.4893972,-1.2864097,-17.
 227797,-14.2410247\PG=C01 [X(C81H68N4O8)]\\@


 HICKORY, DICKORY, DOCK
 TWO MICE RAN UP THE CLOCK
 THE CLOCK STRUCK ONE...
 THE OTHER ESCAPED WITH MINOR INJURIES.
 Job cpu time:  1 days  1 hours 53 minutes  7.4 seconds.
 File lengths (MBytes):  RWF=   2510 Int=      0 D2E=      0 Chk=    125 Scr=      1
 Normal termination of Gaussian 09 at Tue Feb  3 21:19:41 2015.
