 Entering Gaussian System, Link 0=g09
 Input=sp_11_B3LYP_cc-pVDZ.com
 Output=sp_11_B3LYP_cc-pVDZ.log
 Initial command:
 /opt/g09/l1.exe /home/jarvist/2014-07_SPIRO/b3lyp-631gs_opt/delta_scf/cation/Gau-14428.inp -scrdir=/home/jarvist/2014-07_SPIRO/b3lyp-631gs_opt/delta_scf/cation/
 Default is to use a total of   8 processors:
                                8 via shared-memory
                                1 via Linda
 Entering Link 1 = /opt/g09/l1.exe PID=     14430.
  
 Copyright (c) 1988,1990,1992,1993,1995,1998,2003,2009, Gaussian, Inc.
                  All Rights Reserved.
  
 This is part of the Gaussian(R) 09 program.  It is based on
 the Gaussian(R) 03 system (copyright 2003, Gaussian, Inc.),
 the Gaussian(R) 98 system (copyright 1998, Gaussian, Inc.),
 the Gaussian(R) 94 system (copyright 1995, Gaussian, Inc.),
 the Gaussian 92(TM) system (copyright 1992, Gaussian, Inc.),
 the Gaussian 90(TM) system (copyright 1990, Gaussian, Inc.),
 the Gaussian 88(TM) system (copyright 1988, Gaussian, Inc.),
 the Gaussian 86(TM) system (copyright 1986, Carnegie Mellon
 University), and the Gaussian 82(TM) system (copyright 1983,
 Carnegie Mellon University). Gaussian is a federally registered
 trademark of Gaussian, Inc.
  
 This software contains proprietary and confidential information,
 including trade secrets, belonging to Gaussian, Inc.
  
 This software is provided under written license and may be
 used, copied, transmitted, or stored only in accord with that
 written license.
  
 The following legend is applicable only to US Government
 contracts under FAR:
  
                    RESTRICTED RIGHTS LEGEND
  
 Use, reproduction and disclosure by the US Government is
 subject to restrictions as set forth in subparagraphs (a)
 and (c) of the Commercial Computer Software - Restricted
 Rights clause in FAR 52.227-19.
  
 Gaussian, Inc.
 340 Quinnipiac St., Bldg. 40, Wallingford CT 06492
  
  
 ---------------------------------------------------------------
 Warning -- This program may not be used in any manner that
 competes with the business of Gaussian, Inc. or will provide
 assistance to any competitor of Gaussian, Inc.  The licensee
 of this program is prohibited from giving any competitor of
 Gaussian, Inc. access to this program.  By using this program,
 the user acknowledges that Gaussian, Inc. is engaged in the
 business of creating and licensing software in the field of
 computational chemistry and represents and warrants to the
 licensee that it is not a competitor of Gaussian, Inc. and that
 it will not use this program in any manner prohibited above.
 ---------------------------------------------------------------
  

 Cite this work as:
 Gaussian 09, Revision A.02,
 M. J. Frisch, G. W. Trucks, H. B. Schlegel, G. E. Scuseria, 
 M. A. Robb, J. R. Cheeseman, G. Scalmani, V. Barone, B. Mennucci, 
 G. A. Petersson, H. Nakatsuji, M. Caricato, X. Li, H. P. Hratchian, 
 A. F. Izmaylov, J. Bloino, G. Zheng, J. L. Sonnenberg, M. Hada, 
 M. Ehara, K. Toyota, R. Fukuda, J. Hasegawa, M. Ishida, T. Nakajima, 
 Y. Honda, O. Kitao, H. Nakai, T. Vreven, J. A. Montgomery, Jr., 
 J. E. Peralta, F. Ogliaro, M. Bearpark, J. J. Heyd, E. Brothers, 
 K. N. Kudin, V. N. Staroverov, R. Kobayashi, J. Normand, 
 K. Raghavachari, A. Rendell, J. C. Burant, S. S. Iyengar, J. Tomasi, 
 M. Cossi, N. Rega, J. M. Millam, M. Klene, J. E. Knox, J. B. Cross, 
 V. Bakken, C. Adamo, J. Jaramillo, R. Gomperts, R. E. Stratmann, 
 O. Yazyev, A. J. Austin, R. Cammi, C. Pomelli, J. W. Ochterski, 
 R. L. Martin, K. Morokuma, V. G. Zakrzewski, G. A. Voth, 
 P. Salvador, J. J. Dannenberg, S. Dapprich, A. D. Daniels, 
 O. Farkas, J. B. Foresman, J. V. Ortiz, J. Cioslowski, 
 and D. J. Fox, Gaussian, Inc., Wallingford CT, 2009.
 
 ******************************************
 Gaussian 09:  EM64L-G09RevA.02 11-Jun-2009
                27-Jan-2015 
 ******************************************
 %mem=16GB
 %nprocs=24
 Will use up to   24 processors via shared memory.
 Default route:  MaxDisk=100GB
 -------------------
 #p sp B3LYP/cc-pVDZ
 -------------------
 1/38=1/1;
 2/12=2,17=6,18=5,40=1/2;
 3/5=16,11=2,16=1,25=1,30=1,74=-5/1,2,3;
 4//1;
 5/5=2,38=5/2;
 6/7=2,8=2,9=2,10=2,28=1/1;
 99/5=1,9=1/99;
 Leave Link    1 at Tue Jan 27 13:43:44 2015, MaxMem= 2147483648 cpu:       1.9
 (Enter /opt/g09/l101.exe)
 ------------------------------------------
 Auto Spiro; and yes I said yes I will Yes.
 ------------------------------------------
 Symbolic Z-matrix:
 Charge =  1 Multiplicity = 2
 C                    -0.0331    0.06075  -0.00181 
 C                    -0.82036   0.96281   0.95644 
 C                    -0.53893   0.62678   2.29528 
 C                     0.42737  -0.47295   2.31233 
 C                     0.73717  -0.82578   0.98399 
 C                    -0.91892  -0.72771  -0.97428 
 C                    -0.57363  -0.4321   -2.3077 
 C                     0.53233   0.52691  -2.30705 
 C                     0.86575   0.8349   -0.97345 
 C                    -1.94576  -1.6081   -0.6737 
 C                    -2.65108  -2.22891  -1.72373 
 C                    -2.29982  -1.93804  -3.05664 
 C                    -1.27544  -1.04149  -3.3505 
 C                     1.03624  -1.16176   3.36416 
 C                     1.9313   -2.19186   3.08469 
 C                     2.24713  -2.54049   1.75673 
 C                     1.638    -1.8385    0.69749 
 C                    -1.71195   1.97408   0.63811 
 C                    -2.34091   2.69172   1.67505 
 C                    -2.05531   2.35807   3.01378 
 C                    -1.16874   1.32984   3.32523 
 C                     1.24435   1.12557  -3.34945 
 C                     2.26754   2.02304  -3.05457 
 C                     2.60773   2.32525  -1.72147 
 C                     1.89224   1.71601  -0.67204 
 N                    -3.705    -3.13496  -1.44404 
 N                     3.16663  -3.58558   1.48866 
 N                    -3.24723   3.73893   1.37305 
 N                     3.66217   3.23344  -1.4447 
 C                     4.85852   3.18705  -2.21476 
 C                    -2.9791    4.6294    0.29504 
 C                     3.54454   4.17504  -0.38623 
 C                    -4.42019   3.92645   2.15598 
 C                    -3.58996  -4.06387  -0.37278 
 C                    -4.87805  -3.13477  -2.25027 
 C                     4.31535  -3.76056   2.30999 
 C                     2.93872  -4.48007   0.40519 
 C                     4.69828  -5.03285   2.74974 
 C                     5.83738  -5.21401   3.53757 
 C                     6.60416  -4.10853   3.92059 
 C                     6.22158  -2.82838   3.49367 
 C                     5.10196  -2.65834   2.69188 
 C                    -4.66835  -4.30774   0.48536 
 C                    -4.57378  -5.24062   1.52056 
 C                    -3.37656  -5.93313   1.72901 
 C                    -2.28618  -5.68531   0.88214 
 C                    -2.3938   -4.77303  -0.15833 
 C                    -5.43574  -4.33229  -2.71199 
 C                    -6.59871  -4.33769  -3.48574 
 C                    -7.2123   -3.12909  -3.83201 
 C                    -6.65393  -1.92336  -3.38255 
 C                    -5.51146  -1.92694  -2.59509 
 C                     3.978    -4.83929  -0.46008 
 C                     3.76806  -5.73573  -1.51046 
 C                     2.49453  -6.27283  -1.72562 
 C                     1.44408  -5.90966  -0.86975 
 C                     1.66498  -5.03516   0.1852 
 C                    -1.70243   5.17209   0.1096 
 C                    -1.43373   6.04201  -0.9498 
 C                    -2.4568    6.40327  -1.83368 
 C                    -3.74171   5.87314  -1.64755 
 C                    -3.99597   4.99189  -0.60599 
 C                    -5.21706   2.83881   2.53275 
 C                    -6.36574   3.01764   3.30668 
 C                    -6.75168   4.30453   3.69715 
 C                    -5.96607   5.401     3.31372 
 C                    -4.81306   5.21381   2.56456 
 C                     2.3405    4.87178  -0.17205 
 C                     2.229     5.79831   0.85517 
 C                     3.32266   6.07502   1.68897 
 C                     4.5266    5.39456   1.48157 
 C                     4.62563   4.44638   0.46059 
 C                     5.47947   1.96688  -2.50487 
 C                     6.6465    1.91314  -3.27031 
 C                     7.22811   3.09555  -3.74027 
 C                     6.61908   4.32396  -3.44408 
 C                     5.44706   4.36781  -2.70238 
 H                     2.15253   1.93727   0.35842 
 H                    -1.93201   2.2177   -0.39654 
 H                    -2.53418   2.91853   3.81003 
 H                    -0.96282   1.09558   4.36678 
 H                     0.80849  -0.91429   4.39804 
 H                     2.39415  -2.74094   3.89817 
 H                     0.99968   0.91069  -4.38674 
 H                     2.81655   2.5021   -3.85888 
 H                    -1.02248  -0.83574  -4.38765 
 H                    -2.83949  -2.42605  -3.8617 
 H                     1.88091  -2.09349  -0.32929 
 H                    -2.21507  -1.81987   0.35641 
 O                     3.11029   7.01565   2.65927 
 C                     4.17954   7.31773   3.53861 
 O                    -7.86094   4.59702   4.44329 
 C                    -8.69348   3.52447   4.84775 
 O                     7.72986  -4.16681   4.69644 
 O                    -3.16886  -6.86066   2.713 
 C                    -4.23683  -7.13974   3.60102 
 C                     8.15209  -5.43605   5.16349 
 H                     6.82909  -1.97907   3.79099 
 H                     4.82381  -1.66405   2.35675 
 H                    -5.598    -3.76692   0.33827 
 H                    -5.43341  -5.40365   2.16081 
 H                     6.10287  -6.21617   3.85484 
 H                     4.10202  -5.89509   2.46806 
 H                    -1.36531  -6.23596   1.0496 
 H                    -1.5454   -4.59928  -0.81289 
 H                     5.56114   3.91506   0.31716 
 H                     5.38917   5.57835   2.11212 
 H                     1.30081   6.33605   1.02471 
 H                     1.48793   4.67427  -0.81434 
 H                    -6.95418   2.14937   3.58121 
 H                    -4.93365   1.83812   2.22177 
 H                    -6.27201   6.39411   3.62816 
 H                    -4.20685   6.06961   2.28492 
 H                    -8.15439   2.81004   5.48493 
 H                    -9.11281   2.9887    3.98522 
 H                    -9.5065    3.97443   5.42101 
 H                    -5.11212  -7.53853   3.07007 
 H                    -4.53766  -6.24742   4.1668 
 H                    -3.86208  -7.89535   4.29428 
 H                     9.05223  -5.25503   5.75426 
 H                     8.39482  -6.11394   4.33367 
 H                     7.39104  -5.90803   5.79977 
 H                     5.04777   7.71924   2.99826 
 H                     4.49261   6.43586   4.11391 
 H                     3.79973   8.0779    4.22401 
 H                    -4.52534   6.15515  -2.34402 
 H                    -4.99173   4.57853  -0.47964 
 H                    -0.43164   6.44067  -1.06194 
 H                    -0.90542   4.90545   0.79683 
 H                     5.04195   1.04572  -2.13273 
 H                     7.09517   0.94809  -3.4771 
 H                     7.07603   5.23391  -3.82087 
 H                     4.97782   5.32333  -2.48965 
 H                     4.59973  -5.99227  -2.15697 
 H                     4.96701  -4.41859  -0.30717 
 H                     0.46251  -6.34076  -1.04255 
 H                     0.84649  -4.7693    0.84697 
 H                    -5.09625  -0.98832  -2.2416 
 H                    -7.14372  -0.99238  -3.65106 
 H                    -7.00242  -5.28642  -3.82106 
 H                    -4.9588   -5.27396  -2.45863 
 O                    -2.30937   7.25315  -2.89474 
 C                    -1.02737   7.81094  -3.12874 
 O                    -8.34489  -3.01554  -4.59126 
 C                    -8.94344  -4.20432  -5.0768 
 O                     2.17355  -7.1499   -2.72501 
 C                     3.19523  -7.53278  -3.62882 
 O                     8.37248   3.16191  -4.48709 
 C                     9.02916   1.94812  -4.80874 
 H                    -1.13157   8.44234  -4.01328 
 H                    -0.27687   7.03341  -3.32529 
 H                    -0.69241   8.4264   -2.28282 
 H                     9.90281   2.22668  -5.40127 
 H                     8.38608   1.28415  -5.40242 
 H                     9.35904   1.4143   -3.9071 
 H                     2.72836  -8.22049  -4.33666 
 H                     4.01948  -8.04685  -3.11554 
 H                     3.59732  -6.66887  -4.1753 
 H                    -9.81911  -3.88889  -5.64749 
 H                    -9.26381  -4.86157  -4.25679 
 H                    -8.2634   -4.76082  -5.7361 
 
 NAtoms=    161 NQM=    161 NQMF=      0 NMic=      0 NMicF=      0 NTot=    161.
                    Isotopes and Nuclear Properties:
 (Nuclear quadrupole moments (NQMom) in fm**2, nuclear magnetic moments (NMagM)
  in nuclear magnetons)

  Atom         1           2           3           4           5           6           7           8           9          10
 IAtWgt=          12          12          12          12          12          12          12          12          12          12
 AtmWgt=  12.0000000  12.0000000  12.0000000  12.0000000  12.0000000  12.0000000  12.0000000  12.0000000  12.0000000  12.0000000
 NucSpn=           0           0           0           0           0           0           0           0           0           0
 AtZEff=   0.0000000   0.0000000   0.0000000   0.0000000   0.0000000   0.0000000   0.0000000   0.0000000   0.0000000   0.0000000
 NQMom=    0.0000000   0.0000000   0.0000000   0.0000000   0.0000000   0.0000000   0.0000000   0.0000000   0.0000000   0.0000000
 NMagM=    0.0000000   0.0000000   0.0000000   0.0000000   0.0000000   0.0000000   0.0000000   0.0000000   0.0000000   0.0000000

  Atom        11          12          13          14          15          16          17          18          19          20
 IAtWgt=          12          12          12          12          12          12          12          12          12          12
 AtmWgt=  12.0000000  12.0000000  12.0000000  12.0000000  12.0000000  12.0000000  12.0000000  12.0000000  12.0000000  12.0000000
 NucSpn=           0           0           0           0           0           0           0           0           0           0
 AtZEff=   0.0000000   0.0000000   0.0000000   0.0000000   0.0000000   0.0000000   0.0000000   0.0000000   0.0000000   0.0000000
 NQMom=    0.0000000   0.0000000   0.0000000   0.0000000   0.0000000   0.0000000   0.0000000   0.0000000   0.0000000   0.0000000
 NMagM=    0.0000000   0.0000000   0.0000000   0.0000000   0.0000000   0.0000000   0.0000000   0.0000000   0.0000000   0.0000000

  Atom        21          22          23          24          25          26          27          28          29          30
 IAtWgt=          12          12          12          12          12          14          14          14          14          12
 AtmWgt=  12.0000000  12.0000000  12.0000000  12.0000000  12.0000000  14.0030740  14.0030740  14.0030740  14.0030740  12.0000000
 NucSpn=           0           0           0           0           0           2           2           2           2           0
 AtZEff=   0.0000000   0.0000000   0.0000000   0.0000000   0.0000000   0.0000000   0.0000000   0.0000000   0.0000000   0.0000000
 NQMom=    0.0000000   0.0000000   0.0000000   0.0000000   0.0000000   2.0440000   2.0440000   2.0440000   2.0440000   0.0000000
 NMagM=    0.0000000   0.0000000   0.0000000   0.0000000   0.0000000   0.4037610   0.4037610   0.4037610   0.4037610   0.0000000

  Atom        31          32          33          34          35          36          37          38          39          40
 IAtWgt=          12          12          12          12          12          12          12          12          12          12
 AtmWgt=  12.0000000  12.0000000  12.0000000  12.0000000  12.0000000  12.0000000  12.0000000  12.0000000  12.0000000  12.0000000
 NucSpn=           0           0           0           0           0           0           0           0           0           0
 AtZEff=   0.0000000   0.0000000   0.0000000   0.0000000   0.0000000   0.0000000   0.0000000   0.0000000   0.0000000   0.0000000
 NQMom=    0.0000000   0.0000000   0.0000000   0.0000000   0.0000000   0.0000000   0.0000000   0.0000000   0.0000000   0.0000000
 NMagM=    0.0000000   0.0000000   0.0000000   0.0000000   0.0000000   0.0000000   0.0000000   0.0000000   0.0000000   0.0000000

  Atom        41          42          43          44          45          46          47          48          49          50
 IAtWgt=          12          12          12          12          12          12          12          12          12          12
 AtmWgt=  12.0000000  12.0000000  12.0000000  12.0000000  12.0000000  12.0000000  12.0000000  12.0000000  12.0000000  12.0000000
 NucSpn=           0           0           0           0           0           0           0           0           0           0
 AtZEff=   0.0000000   0.0000000   0.0000000   0.0000000   0.0000000   0.0000000   0.0000000   0.0000000   0.0000000   0.0000000
 NQMom=    0.0000000   0.0000000   0.0000000   0.0000000   0.0000000   0.0000000   0.0000000   0.0000000   0.0000000   0.0000000
 NMagM=    0.0000000   0.0000000   0.0000000   0.0000000   0.0000000   0.0000000   0.0000000   0.0000000   0.0000000   0.0000000

  Atom        51          52          53          54          55          56          57          58          59          60
 IAtWgt=          12          12          12          12          12          12          12          12          12          12
 AtmWgt=  12.0000000  12.0000000  12.0000000  12.0000000  12.0000000  12.0000000  12.0000000  12.0000000  12.0000000  12.0000000
 NucSpn=           0           0           0           0           0           0           0           0           0           0
 AtZEff=   0.0000000   0.0000000   0.0000000   0.0000000   0.0000000   0.0000000   0.0000000   0.0000000   0.0000000   0.0000000
 NQMom=    0.0000000   0.0000000   0.0000000   0.0000000   0.0000000   0.0000000   0.0000000   0.0000000   0.0000000   0.0000000
 NMagM=    0.0000000   0.0000000   0.0000000   0.0000000   0.0000000   0.0000000   0.0000000   0.0000000   0.0000000   0.0000000

  Atom        61          62          63          64          65          66          67          68          69          70
 IAtWgt=          12          12          12          12          12          12          12          12          12          12
 AtmWgt=  12.0000000  12.0000000  12.0000000  12.0000000  12.0000000  12.0000000  12.0000000  12.0000000  12.0000000  12.0000000
 NucSpn=           0           0           0           0           0           0           0           0           0           0
 AtZEff=   0.0000000   0.0000000   0.0000000   0.0000000   0.0000000   0.0000000   0.0000000   0.0000000   0.0000000   0.0000000
 NQMom=    0.0000000   0.0000000   0.0000000   0.0000000   0.0000000   0.0000000   0.0000000   0.0000000   0.0000000   0.0000000
 NMagM=    0.0000000   0.0000000   0.0000000   0.0000000   0.0000000   0.0000000   0.0000000   0.0000000   0.0000000   0.0000000

  Atom        71          72          73          74          75          76          77          78          79          80
 IAtWgt=          12          12          12          12          12          12          12           1           1           1
 AtmWgt=  12.0000000  12.0000000  12.0000000  12.0000000  12.0000000  12.0000000  12.0000000   1.0078250   1.0078250   1.0078250
 NucSpn=           0           0           0           0           0           0           0           1           1           1
 AtZEff=   0.0000000   0.0000000   0.0000000   0.0000000   0.0000000   0.0000000   0.0000000   0.0000000   0.0000000   0.0000000
 NQMom=    0.0000000   0.0000000   0.0000000   0.0000000   0.0000000   0.0000000   0.0000000   0.0000000   0.0000000   0.0000000
 NMagM=    0.0000000   0.0000000   0.0000000   0.0000000   0.0000000   0.0000000   0.0000000   2.7928460   2.7928460   2.7928460

  Atom        81          82          83          84          85          86          87          88          89          90
 IAtWgt=           1           1           1           1           1           1           1           1           1          16
 AtmWgt=   1.0078250   1.0078250   1.0078250   1.0078250   1.0078250   1.0078250   1.0078250   1.0078250   1.0078250  15.9949146
 NucSpn=           1           1           1           1           1           1           1           1           1           0
 AtZEff=   0.0000000   0.0000000   0.0000000   0.0000000   0.0000000   0.0000000   0.0000000   0.0000000   0.0000000   0.0000000
 NQMom=    0.0000000   0.0000000   0.0000000   0.0000000   0.0000000   0.0000000   0.0000000   0.0000000   0.0000000   0.0000000
 NMagM=    2.7928460   2.7928460   2.7928460   2.7928460   2.7928460   2.7928460   2.7928460   2.7928460   2.7928460   0.0000000

  Atom        91          92          93          94          95          96          97          98          99         100
 IAtWgt=          12          16          12          16          16          12          12           1           1           1
 AtmWgt=  12.0000000  15.9949146  12.0000000  15.9949146  15.9949146  12.0000000  12.0000000   1.0078250   1.0078250   1.0078250
 NucSpn=           0           0           0           0           0           0           0           1           1           1
 AtZEff=   0.0000000   0.0000000   0.0000000   0.0000000   0.0000000   0.0000000   0.0000000   0.0000000   0.0000000   0.0000000
 NQMom=    0.0000000   0.0000000   0.0000000   0.0000000   0.0000000   0.0000000   0.0000000   0.0000000   0.0000000   0.0000000
 NMagM=    0.0000000   0.0000000   0.0000000   0.0000000   0.0000000   0.0000000   0.0000000   2.7928460   2.7928460   2.7928460

  Atom       101         102         103         104         105         106         107         108         109         110
 IAtWgt=           1           1           1           1           1           1           1           1           1           1
 AtmWgt=   1.0078250   1.0078250   1.0078250   1.0078250   1.0078250   1.0078250   1.0078250   1.0078250   1.0078250   1.0078250
 NucSpn=           1           1           1           1           1           1           1           1           1           1
 AtZEff=   0.0000000   0.0000000   0.0000000   0.0000000   0.0000000   0.0000000   0.0000000   0.0000000   0.0000000   0.0000000
 NQMom=    0.0000000   0.0000000   0.0000000   0.0000000   0.0000000   0.0000000   0.0000000   0.0000000   0.0000000   0.0000000
 NMagM=    2.7928460   2.7928460   2.7928460   2.7928460   2.7928460   2.7928460   2.7928460   2.7928460   2.7928460   2.7928460

  Atom       111         112         113         114         115         116         117         118         119         120
 IAtWgt=           1           1           1           1           1           1           1           1           1           1
 AtmWgt=   1.0078250   1.0078250   1.0078250   1.0078250   1.0078250   1.0078250   1.0078250   1.0078250   1.0078250   1.0078250
 NucSpn=           1           1           1           1           1           1           1           1           1           1
 AtZEff=   0.0000000   0.0000000   0.0000000   0.0000000   0.0000000   0.0000000   0.0000000   0.0000000   0.0000000   0.0000000
 NQMom=    0.0000000   0.0000000   0.0000000   0.0000000   0.0000000   0.0000000   0.0000000   0.0000000   0.0000000   0.0000000
 NMagM=    2.7928460   2.7928460   2.7928460   2.7928460   2.7928460   2.7928460   2.7928460   2.7928460   2.7928460   2.7928460

  Atom       121         122         123         124         125         126         127         128         129         130
 IAtWgt=           1           1           1           1           1           1           1           1           1           1
 AtmWgt=   1.0078250   1.0078250   1.0078250   1.0078250   1.0078250   1.0078250   1.0078250   1.0078250   1.0078250   1.0078250
 NucSpn=           1           1           1           1           1           1           1           1           1           1
 AtZEff=   0.0000000   0.0000000   0.0000000   0.0000000   0.0000000   0.0000000   0.0000000   0.0000000   0.0000000   0.0000000
 NQMom=    0.0000000   0.0000000   0.0000000   0.0000000   0.0000000   0.0000000   0.0000000   0.0000000   0.0000000   0.0000000
 NMagM=    2.7928460   2.7928460   2.7928460   2.7928460   2.7928460   2.7928460   2.7928460   2.7928460   2.7928460   2.7928460

  Atom       131         132         133         134         135         136         137         138         139         140
 IAtWgt=           1           1           1           1           1           1           1           1           1           1
 AtmWgt=   1.0078250   1.0078250   1.0078250   1.0078250   1.0078250   1.0078250   1.0078250   1.0078250   1.0078250   1.0078250
 NucSpn=           1           1           1           1           1           1           1           1           1           1
 AtZEff=   0.0000000   0.0000000   0.0000000   0.0000000   0.0000000   0.0000000   0.0000000   0.0000000   0.0000000   0.0000000
 NQMom=    0.0000000   0.0000000   0.0000000   0.0000000   0.0000000   0.0000000   0.0000000   0.0000000   0.0000000   0.0000000
 NMagM=    2.7928460   2.7928460   2.7928460   2.7928460   2.7928460   2.7928460   2.7928460   2.7928460   2.7928460   2.7928460

  Atom       141         142         143         144         145         146         147         148         149         150
 IAtWgt=           1          16          12          16          12          16          12          16          12           1
 AtmWgt=   1.0078250  15.9949146  12.0000000  15.9949146  12.0000000  15.9949146  12.0000000  15.9949146  12.0000000   1.0078250
 NucSpn=           1           0           0           0           0           0           0           0           0           1
 AtZEff=   0.0000000   0.0000000   0.0000000   0.0000000   0.0000000   0.0000000   0.0000000   0.0000000   0.0000000   0.0000000
 NQMom=    0.0000000   0.0000000   0.0000000   0.0000000   0.0000000   0.0000000   0.0000000   0.0000000   0.0000000   0.0000000
 NMagM=    2.7928460   0.0000000   0.0000000   0.0000000   0.0000000   0.0000000   0.0000000   0.0000000   0.0000000   2.7928460

  Atom       151         152         153         154         155         156         157         158         159         160
 IAtWgt=           1           1           1           1           1           1           1           1           1           1
 AtmWgt=   1.0078250   1.0078250   1.0078250   1.0078250   1.0078250   1.0078250   1.0078250   1.0078250   1.0078250   1.0078250
 NucSpn=           1           1           1           1           1           1           1           1           1           1
 AtZEff=   0.0000000   0.0000000   0.0000000   0.0000000   0.0000000   0.0000000   0.0000000   0.0000000   0.0000000   0.0000000
 NQMom=    0.0000000   0.0000000   0.0000000   0.0000000   0.0000000   0.0000000   0.0000000   0.0000000   0.0000000   0.0000000
 NMagM=    2.7928460   2.7928460   2.7928460   2.7928460   2.7928460   2.7928460   2.7928460   2.7928460   2.7928460   2.7928460

  Atom       161
 IAtWgt=           1
 AtmWgt=   1.0078250
 NucSpn=           1
 AtZEff=   0.0000000
 NQMom=    0.0000000
 NMagM=    2.7928460
 Leave Link  101 at Tue Jan 27 13:43:44 2015, MaxMem= 2147483648 cpu:       4.8
 (Enter /opt/g09/l202.exe)
 Stoichiometry    C81H68N4O8(1+,2)
 Framework group  C1[X(C81H68N4O8)]
 Deg. of freedom   477
 Full point group                 C1      NOp   1
 Largest Abelian subgroup         C1      NOp   1
 Largest concise Abelian subgroup C1      NOp   1
                         Standard orientation:                         
 ---------------------------------------------------------------------
 Center     Atomic      Atomic             Coordinates (Angstroms)
 Number     Number       Type             X           Y           Z
 ---------------------------------------------------------------------
      1          6           0       -0.033100    0.060747   -0.001812
      2          6           0       -0.820358    0.962808    0.956441
      3          6           0       -0.538927    0.626776    2.295284
      4          6           0        0.427370   -0.472949    2.312332
      5          6           0        0.737170   -0.825783    0.983991
      6          6           0       -0.918918   -0.727713   -0.974280
      7          6           0       -0.573627   -0.432104   -2.307696
      8          6           0        0.532333    0.526910   -2.307051
      9          6           0        0.865748    0.834899   -0.973448
     10          6           0       -1.945755   -1.608096   -0.673696
     11          6           0       -2.651084   -2.228906   -1.723731
     12          6           0       -2.299820   -1.938042   -3.056637
     13          6           0       -1.275444   -1.041486   -3.350504
     14          6           0        1.036241   -1.161764    3.364158
     15          6           0        1.931299   -2.191856    3.084695
     16          6           0        2.247127   -2.540492    1.756728
     17          6           0        1.638003   -1.838496    0.697493
     18          6           0       -1.711954    1.974079    0.638108
     19          6           0       -2.340905    2.691719    1.675054
     20          6           0       -2.055305    2.358070    3.013783
     21          6           0       -1.168742    1.329841    3.325229
     22          6           0        1.244348    1.125571   -3.349454
     23          6           0        2.267542    2.023036   -3.054567
     24          6           0        2.607727    2.325245   -1.721472
     25          6           0        1.892244    1.716007   -0.672038
     26          7           0       -3.705003   -3.134960   -1.444040
     27          7           0        3.166629   -3.585582    1.488657
     28          7           0       -3.247234    3.738930    1.373045
     29          7           0        3.662172    3.233442   -1.444701
     30          6           0        4.858523    3.187046   -2.214758
     31          6           0       -2.979103    4.629396    0.295036
     32          6           0        3.544537    4.175040   -0.386226
     33          6           0       -4.420187    3.926445    2.155976
     34          6           0       -3.589957   -4.063873   -0.372783
     35          6           0       -4.878048   -3.134774   -2.250270
     36          6           0        4.315349   -3.760559    2.309992
     37          6           0        2.938720   -4.480068    0.405189
     38          6           0        4.698282   -5.032854    2.749736
     39          6           0        5.837375   -5.214010    3.537569
     40          6           0        6.604161   -4.108534    3.920588
     41          6           0        6.221583   -2.828378    3.493665
     42          6           0        5.101962   -2.658337    2.691881
     43          6           0       -4.668352   -4.307737    0.485357
     44          6           0       -4.573783   -5.240618    1.520556
     45          6           0       -3.376556   -5.933133    1.729010
     46          6           0       -2.286184   -5.685311    0.882139
     47          6           0       -2.393802   -4.773025   -0.158332
     48          6           0       -5.435745   -4.332286   -2.711990
     49          6           0       -6.598708   -4.337691   -3.485735
     50          6           0       -7.212304   -3.129087   -3.832014
     51          6           0       -6.653933   -1.923360   -3.382554
     52          6           0       -5.511458   -1.926943   -2.595091
     53          6           0        3.978003   -4.839286   -0.460084
     54          6           0        3.768058   -5.735734   -1.510459
     55          6           0        2.494527   -6.272825   -1.725621
     56          6           0        1.444075   -5.909656   -0.869754
     57          6           0        1.664978   -5.035162    0.185204
     58          6           0       -1.702432    5.172087    0.109602
     59          6           0       -1.433725    6.042011   -0.949801
     60          6           0       -2.456796    6.403267   -1.833680
     61          6           0       -3.741713    5.873136   -1.647554
     62          6           0       -3.995970    4.991886   -0.605989
     63          6           0       -5.217063    2.838806    2.532745
     64          6           0       -6.365743    3.017644    3.306675
     65          6           0       -6.751683    4.304528    3.697147
     66          6           0       -5.966069    5.400997    3.313722
     67          6           0       -4.813063    5.213809    2.564561
     68          6           0        2.340496    4.871780   -0.172045
     69          6           0        2.229003    5.798305    0.855166
     70          6           0        3.322660    6.075023    1.688972
     71          6           0        4.526601    5.394563    1.481573
     72          6           0        4.625628    4.446378    0.460586
     73          6           0        5.479466    1.966882   -2.504869
     74          6           0        6.646503    1.913144   -3.270310
     75          6           0        7.228113    3.095552   -3.740271
     76          6           0        6.619077    4.323960   -3.444080
     77          6           0        5.447061    4.367811   -2.702376
     78          1           0        2.152528    1.937271    0.358419
     79          1           0       -1.932013    2.217704   -0.396538
     80          1           0       -2.534179    2.918533    3.810034
     81          1           0       -0.962821    1.095580    4.366778
     82          1           0        0.808492   -0.914287    4.398044
     83          1           0        2.394153   -2.740943    3.898165
     84          1           0        0.999684    0.910690   -4.386743
     85          1           0        2.816553    2.502100   -3.858884
     86          1           0       -1.022483   -0.835740   -4.387651
     87          1           0       -2.839488   -2.426052   -3.861703
     88          1           0        1.880913   -2.093488   -0.329289
     89          1           0       -2.215068   -1.819865    0.356411
     90          8           0        3.110292    7.015651    2.659269
     91          6           0        4.179540    7.317725    3.538605
     92          8           0       -7.860942    4.597023    4.443285
     93          6           0       -8.693482    3.524466    4.847750
     94          8           0        7.729856   -4.166813    4.696438
     95          8           0       -3.168862   -6.860661    2.712999
     96          6           0       -4.236833   -7.139737    3.601022
     97          6           0        8.152090   -5.436045    5.163494
     98          1           0        6.829091   -1.979072    3.790987
     99          1           0        4.823808   -1.664049    2.356752
    100          1           0       -5.598000   -3.766916    0.338265
    101          1           0       -5.433407   -5.403652    2.160812
    102          1           0        6.102873   -6.216167    3.854839
    103          1           0        4.102019   -5.895092    2.468064
    104          1           0       -1.365313   -6.235964    1.049599
    105          1           0       -1.545398   -4.599280   -0.812894
    106          1           0        5.561138    3.915059    0.317157
    107          1           0        5.389174    5.578353    2.112122
    108          1           0        1.300814    6.336053    1.024710
    109          1           0        1.487925    4.674269   -0.814338
    110          1           0       -6.954178    2.149374    3.581209
    111          1           0       -4.933649    1.838121    2.221766
    112          1           0       -6.272006    6.394109    3.628157
    113          1           0       -4.206847    6.069605    2.284916
    114          1           0       -8.154390    2.810042    5.484925
    115          1           0       -9.112815    2.988700    3.985218
    116          1           0       -9.506497    3.974427    5.421005
    117          1           0       -5.112124   -7.538531    3.070073
    118          1           0       -4.537656   -6.247422    4.166802
    119          1           0       -3.862078   -7.895346    4.294277
    120          1           0        9.052235   -5.255028    5.754257
    121          1           0        8.394823   -6.113944    4.333666
    122          1           0        7.391038   -5.908026    5.799765
    123          1           0        5.047771    7.719239    2.998255
    124          1           0        4.492610    6.435864    4.113909
    125          1           0        3.799726    8.077902    4.224011
    126          1           0       -4.525337    6.155154   -2.344023
    127          1           0       -4.991725    4.578530   -0.479636
    128          1           0       -0.431644    6.440671   -1.061943
    129          1           0       -0.905423    4.905451    0.796831
    130          1           0        5.041948    1.045722   -2.132726
    131          1           0        7.095172    0.948089   -3.477096
    132          1           0        7.076033    5.233905   -3.820867
    133          1           0        4.977816    5.323329   -2.489647
    134          1           0        4.599726   -5.992272   -2.156969
    135          1           0        4.967010   -4.418590   -0.307173
    136          1           0        0.462512   -6.340757   -1.042546
    137          1           0        0.846489   -4.769304    0.846969
    138          1           0       -5.096254   -0.988321   -2.241595
    139          1           0       -7.143716   -0.992377   -3.651059
    140          1           0       -7.002419   -5.286424   -3.821058
    141          1           0       -4.958795   -5.273963   -2.458628
    142          8           0       -2.309366    7.253154   -2.894740
    143          6           0       -1.027366    7.810942   -3.128740
    144          8           0       -8.344892   -3.015541   -4.591262
    145          6           0       -8.943435   -4.204321   -5.076802
    146          8           0        2.173547   -7.149903   -2.725012
    147          6           0        3.195226   -7.532780   -3.628820
    148          8           0        8.372478    3.161908   -4.487088
    149          6           0        9.029158    1.948121   -4.808743
    150          1           0       -1.131575    8.442339   -4.013275
    151          1           0       -0.276865    7.033406   -3.325294
    152          1           0       -0.692414    8.426399   -2.282825
    153          1           0        9.902805    2.226683   -5.401273
    154          1           0        8.386083    1.284147   -5.402421
    155          1           0        9.359037    1.414298   -3.907102
    156          1           0        2.728360   -8.220490   -4.336659
    157          1           0        4.019481   -8.046853   -3.115541
    158          1           0        3.597315   -6.668866   -4.175298
    159          1           0       -9.819106   -3.888887   -5.647487
    160          1           0       -9.263811   -4.861565   -4.256792
    161          1           0       -8.263395   -4.760823   -5.736096
 ---------------------------------------------------------------------
 Rotational constants (GHZ):      0.0159016      0.0147981      0.0105363
 Leave Link  202 at Tue Jan 27 13:43:44 2015, MaxMem= 2147483648 cpu:       0.1
 (Enter /opt/g09/l301.exe)
 Standard basis: CC-pVDZ (5D, 7F)
 Ernie: Thresh=  0.10000D-02 Tol=  0.10000D-05 Strict=F.
 Ernie:  186 primitive shells out of 2386 were deleted.
 There are  1642 symmetry adapted basis functions of A   symmetry.
 Integral buffers will be    131072 words long.
 Raffenetti 2 integral format.
 Two-electron integral symmetry is turned on.
  1642 basis functions,  3545 primitive gaussians,  1735 cartesian basis functions
   323 alpha electrons      322 beta electrons
       nuclear repulsion energy     16195.2780742256 Hartrees.
 IExCor=  402 DFT=T Ex+Corr=B3LYP ExCW=0 ScaHFX=  0.200000
 ScaDFX=  0.800000  0.720000  1.000000  0.810000 ScalE2=  1.000000  1.000000
 IRadAn=      0 IRanWt=     -1 IRanGd=            0 ICorTp=0
 NAtoms=  161 NActive=  161 NUniq=  161 SFac= 7.50D-01 NAtFMM=   80 NAOKFM=T Big=T
 Leave Link  301 at Tue Jan 27 13:43:44 2015, MaxMem= 2147483648 cpu:       1.4
 (Enter /opt/g09/l302.exe)
 NPDir=0 NMtPBC=     1 NCelOv=     1 NCel=       1 NClECP=     1 NCelD=      1
         NCelK=      1 NCelE2=     1 NClLst=     1 CellRange=     0.0.
 One-electron integrals computed using PRISM.
 NBasis=  1642 RedAO= T  NBF=  1642
 NBsUse=  1642 1.00D-06 NBFU=  1642
 Precomputing XC quadrature grid using
 IXCGrd= 2 IRadAn=           0 IRanWt=          -1 IRanGd=           0 AccXCQ= 1.00D-10.
 NRdTot=   10550 NPtTot=     1352466 NUsed=     1428422 NTot=     1428454
 NSgBfM=  1209  1212  1235  1251  1256 NAtAll=   161   154.
 Leave Link  302 at Tue Jan 27 13:44:05 2015, MaxMem= 2147483648 cpu:     491.7
 (Enter /opt/g09/l303.exe)
 DipDrv:  MaxL=1.
 Leave Link  303 at Tue Jan 27 13:44:07 2015, MaxMem= 2147483648 cpu:      36.5
 (Enter /opt/g09/l401.exe)
 Harris functional with IExCor=  402 diagonalized for initial guess.
 ExpMin= 1.22D-01 ExpMax= 1.17D+04 ExpMxC= 4.01D+02 IAcc=1 IRadAn=         1 AccDes= 0.00D+00
 HarFok:  IExCor=  402 AccDes= 0.00D+00 IRadAn=         1 IDoV= 1
 ScaDFX=  1.000000  1.000000  1.000000  1.000000
 FoFCou: FMM=F IPFlag=           0 FMFlag=      100000 FMFlg1=        2001
         NFxFlg=           0 DoJE=T BraDBF=F KetDBF=T FulRan=T
         Omega=  0.000000  0.000000  1.000000  0.000000  0.000000 ICntrl=     500 IOpCl=  0
         NMat0=    1 NMatS0=    1 NMatT0=    0 NMatD0=    1 NMtDS0=    0 NMtDT0=    0
         I1Cent=           4 NGrid=           0.
 Petite list used in FoFCou.
 Harris En= -3948.40844898261    
 Initial guess orbital symmetries:
 Alpha Orbitals:
       Occupied  (A) (A) (A) (A) (A) (A) (A) (A) (A) (A) (A) (A)
                 (A) (A) (A) (A) (A) (A) (A) (A) (A) (A) (A) (A)
                 (A) (A) (A) (A) (A) (A) (A) (A) (A) (A) (A) (A)
                 (A) (A) (A) (A) (A) (A) (A) (A) (A) (A) (A) (A)
                 (A) (A) (A) (A) (A) (A) (A) (A) (A) (A) (A) (A)
                 (A) (A) (A) (A) (A) (A) (A) (A) (A) (A) (A) (A)
                 (A) (A) (A) (A) (A) (A) (A) (A) (A) (A) (A) (A)
                 (A) (A) (A) (A) (A) (A) (A) (A) (A) (A) (A) (A)
                 (A) (A) (A) (A) (A) (A) (A) (A) (A) (A) (A) (A)
                 (A) (A) (A) (A) (A) (A) (A) (A) (A) (A) (A) (A)
                 (A) (A) (A) (A) (A) (A) (A) (A) (A) (A) (A) (A)
                 (A) (A) (A) (A) (A) (A) (A) (A) (A) (A) (A) (A)
                 (A) (A) (A) (A) (A) (A) (A) (A) (A) (A) (A) (A)
                 (A) (A) (A) (A) (A) (A) (A) (A) (A) (A) (A) (A)
                 (A) (A) (A) (A) (A) (A) (A) (A) (A) (A) (A) (A)
                 (A) (A) (A) (A) (A) (A) (A) (A) (A) (A) (A) (A)
                 (A) (A) (A) (A) (A) (A) (A) (A) (A) (A) (A) (A)
                 (A) (A) (A) (A) (A) (A) (A) (A) (A) (A) (A) (A)
                 (A) (A) (A) (A) (A) (A) (A) (A) (A) (A) (A) (A)
                 (A) (A) (A) (A) (A) (A) (A) (A) (A) (A) (A) (A)
                 (A) (A) (A) (A) (A) (A) (A) (A) (A) (A) (A) (A)
                 (A) (A) (A) (A) (A) (A) (A) (A) (A) (A) (A) (A)
                 (A) (A) (A) (A) (A) (A) (A) (A) (A) (A) (A) (A)
                 (A) (A) (A) (A) (A) (A) (A) (A) (A) (A) (A) (A)
                 (A) (A) (A) (A) (A) (A) (A) (A) (A) (A) (A) (A)
                 (A) (A) (A) (A) (A) (A) (A) (A) (A) (A) (A) (A)
                 (A) (A) (A) (A) (A) (A) (A) (A) (A) (A) (A)
       Virtual   (A) (A) (A) (A) (A) (A) (A) (A) (A) (A) (A) (A)
                 (A) (A) (A) (A) (A) (A) (A) (A) (A) (A) (A) (A)
                 (A) (A) (A) (A) (A) (A) (A) (A) (A) (A) (A) (A)
                 (A) (A) (A) (A) (A) (A) (A) (A) (A) (A) (A) (A)
                 (A) (A) (A) (A) (A) (A) (A) (A) (A) (A) (A) (A)
                 (A) (A) (A) (A) (A) (A) (A) (A) (A) (A) (A) (A)
                 (A) (A) (A) (A) (A) (A) (A) (A) (A) (A) (A) (A)
                 (A) (A) (A) (A) (A) (A) (A) (A) (A) (A) (A) (A)
                 (A) (A) (A) (A) (A) (A) (A) (A) (A) (A) (A) (A)
                 (A) (A) (A) (A) (A) (A) (A) (A) (A) (A) (A) (A)
                 (A) (A) (A) (A) (A) (A) (A) (A) (A) (A) (A) (A)
                 (A) (A) (A) (A) (A) (A) (A) (A) (A) (A) (A) (A)
                 (A) (A) (A) (A) (A) (A) (A) (A) (A) (A) (A) (A)
                 (A) (A) (A) (A) (A) (A) (A) (A) (A) (A) (A) (A)
                 (A) (A) (A) (A) (A) (A) (A) (A) (A) (A) (A) (A)
                 (A) (A) (A) (A) (A) (A) (A) (A) (A) (A) (A) (A)
                 (A) (A) (A) (A) (A) (A) (A) (A) (A) (A) (A) (A)
                 (A) (A) (A) (A) (A) (A) (A) (A) (A) (A) (A) (A)
                 (A) (A) (A) (A) (A) (A) (A) (A) (A) (A) (A) (A)
                 (A) (A) (A) (A) (A) (A) (A) (A) (A) (A) (A) (A)
                 (A) (A) (A) (A) (A) (A) (A) (A) (A) (A) (A) (A)
                 (A) (A) (A) (A) (A) (A) (A) (A) (A) (A) (A) (A)
                 (A) (A) (A) (A) (A) (A) (A) (A) (A) (A) (A) (A)
                 (A) (A) (A) (A) (A) (A) (A) (A) (A) (A) (A) (A)
                 (A) (A) (A) (A) (A) (A) (A) (A) (A) (A) (A) (A)
                 (A) (A) (A) (A) (A) (A) (A) (A) (A) (A) (A) (A)
                 (A) (A) (A) (A) (A) (A) (A) (A) (A) (A) (A) (A)
                 (A) (A) (A) (A) (A) (A) (A) (A) (A) (A) (A) (A)
                 (A) (A) (A) (A) (A) (A) (A) (A) (A) (A) (A) (A)
                 (A) (A) (A) (A) (A) (A) (A) (A) (A) (A) (A) (A)
                 (A) (A) (A) (A) (A) (A) (A) (A) (A) (A) (A) (A)
                 (A) (A) (A) (A) (A) (A) (A) (A) (A) (A) (A) (A)
                 (A) (A) (A) (A) (A) (A) (A) (A) (A) (A) (A) (A)
                 (A) (A) (A) (A) (A) (A) (A) (A) (A) (A) (A) (A)
                 (A) (A) (A) (A) (A) (A) (A) (A) (A) (A) (A) (A)
                 (A) (A) (A) (A) (A) (A) (A) (A) (A) (A) (A) (A)
                 (A) (A) (A) (A) (A) (A) (A) (A) (A) (A) (A) (A)
                 (A) (A) (A) (A) (A) (A) (A) (A) (A) (A) (A) (A)
                 (A) (A) (A) (A) (A) (A) (A) (A) (A) (A) (A) (A)
                 (A) (A) (A) (A) (A) (A) (A) (A) (A) (A) (A) (A)
                 (A) (A) (A) (A) (A) (A) (A) (A) (A) (A) (A) (A)
                 (A) (A) (A) (A) (A) (A) (A) (A) (A) (A) (A) (A)
                 (A) (A) (A) (A) (A) (A) (A) (A) (A) (A) (A) (A)
                 (A) (A) (A) (A) (A) (A) (A) (A) (A) (A) (A) (A)
                 (A) (A) (A) (A) (A) (A) (A) (A) (A) (A) (A) (A)
                 (A) (A) (A) (A) (A) (A) (A) (A) (A) (A) (A) (A)
                 (A) (A) (A) (A) (A) (A) (A) (A) (A) (A) (A) (A)
                 (A) (A) (A) (A) (A) (A) (A) (A) (A) (A) (A) (A)
                 (A) (A) (A) (A) (A) (A) (A) (A) (A) (A) (A) (A)
                 (A) (A) (A) (A) (A) (A) (A) (A) (A) (A) (A) (A)
                 (A) (A) (A) (A) (A) (A) (A) (A) (A) (A) (A) (A)
                 (A) (A) (A) (A) (A) (A) (A) (A) (A) (A) (A) (A)
                 (A) (A) (A) (A) (A) (A) (A) (A) (A) (A) (A) (A)
                 (A) (A) (A) (A) (A) (A) (A) (A) (A) (A) (A) (A)
                 (A) (A) (A) (A) (A) (A) (A) (A) (A) (A) (A) (A)
                 (A) (A) (A) (A) (A) (A) (A) (A) (A) (A) (A) (A)
                 (A) (A) (A) (A) (A) (A) (A) (A) (A) (A) (A) (A)
                 (A) (A) (A) (A) (A) (A) (A) (A) (A) (A) (A) (A)
                 (A) (A) (A) (A) (A) (A) (A) (A) (A) (A) (A) (A)
                 (A) (A) (A) (A) (A) (A) (A) (A) (A) (A) (A) (A)
                 (A) (A) (A) (A) (A) (A) (A) (A) (A) (A) (A) (A)
                 (A) (A) (A) (A) (A) (A) (A) (A) (A) (A) (A) (A)
                 (A) (A) (A) (A) (A) (A) (A) (A) (A) (A) (A) (A)
                 (A) (A) (A) (A) (A) (A) (A) (A) (A) (A) (A) (A)
                 (A) (A) (A) (A) (A) (A) (A) (A) (A) (A) (A) (A)
                 (A) (A) (A) (A) (A) (A) (A) (A) (A) (A) (A) (A)
                 (A) (A) (A) (A) (A) (A) (A) (A) (A) (A) (A) (A)
                 (A) (A) (A) (A) (A) (A) (A) (A) (A) (A) (A) (A)
                 (A) (A) (A) (A) (A) (A) (A) (A) (A) (A) (A) (A)
                 (A) (A) (A) (A) (A) (A) (A) (A) (A) (A) (A) (A)
                 (A) (A) (A) (A) (A) (A) (A) (A) (A) (A) (A) (A)
                 (A) (A) (A) (A) (A) (A) (A) (A) (A) (A) (A) (A)
                 (A) (A) (A) (A) (A) (A) (A) (A) (A) (A) (A) (A)
                 (A) (A) (A) (A) (A) (A) (A) (A) (A) (A) (A) (A)
                 (A) (A) (A) (A) (A) (A) (A) (A) (A) (A) (A) (A)
                 (A) (A) (A) (A) (A) (A) (A) (A) (A) (A) (A) (A)
                 (A) (A) (A) (A) (A) (A) (A) (A) (A) (A) (A) (A)
                 (A) (A) (A) (A) (A) (A) (A) (A) (A) (A) (A) (A)
                 (A) (A) (A) (A) (A) (A) (A) (A) (A) (A) (A) (A)
                 (A) (A) (A) (A) (A) (A) (A) (A) (A) (A) (A) (A)
                 (A) (A) (A) (A) (A) (A) (A) (A) (A) (A) (A) (A)
                 (A) (A) (A) (A) (A) (A) (A) (A) (A) (A) (A) (A)
                 (A) (A) (A) (A) (A) (A) (A) (A) (A) (A) (A) (A)
                 (A) (A) (A) (A) (A) (A) (A) (A) (A) (A) (A) (A)
                 (A) (A) (A) (A) (A) (A) (A) (A) (A) (A) (A) (A)
                 (A) (A) (A) (A) (A) (A) (A) (A) (A) (A) (A) (A)
                 (A) (A) (A) (A) (A) (A) (A) (A) (A) (A) (A) (A)
                 (A) (A) (A) (A) (A) (A) (A) (A) (A) (A) (A) (A)
                 (A) (A) (A) (A) (A) (A) (A) (A) (A) (A) (A) (A)
                 (A) (A) (A) (A) (A) (A) (A) (A) (A) (A) (A) (A)
                 (A) (A) (A) (A) (A) (A) (A) (A) (A) (A) (A) (A)
                 (A) (A) (A) (A) (A) (A) (A) (A) (A) (A) (A) (A)
                 (A) (A) (A) (A) (A) (A) (A) (A) (A) (A) (A) (A)
                 (A) (A) (A) (A) (A) (A) (A) (A) (A) (A) (A) (A)
                 (A) (A) (A) (A) (A) (A) (A) (A) (A) (A) (A) (A)
                 (A) (A) (A) (A) (A) (A) (A) (A) (A) (A) (A) (A)
                 (A) (A) (A) (A) (A) (A) (A) (A) (A) (A) (A) (A)
                 (A) (A) (A) (A) (A) (A) (A) (A) (A) (A) (A) (A)
                 (A) (A) (A) (A) (A) (A) (A) (A) (A) (A) (A) (A)
                 (A) (A) (A) (A) (A) (A) (A) (A) (A) (A) (A) (A)
                 (A) (A) (A) (A) (A) (A) (A) (A) (A) (A) (A) (A)
                 (A) (A) (A) (A) (A) (A) (A) (A) (A) (A) (A) (A)
                 (A) (A) (A) (A) (A) (A) (A) (A) (A) (A) (A) (A)
                 (A) (A) (A) (A) (A) (A) (A) (A) (A) (A) (A) (A)
                 (A) (A) (A) (A) (A) (A) (A) (A) (A) (A) (A) (A)
                 (A) (A) (A) (A) (A) (A) (A) (A) (A) (A) (A) (A)
                 (A) (A) (A) (A) (A) (A) (A) (A) (A) (A) (A) (A)
                 (A) (A) (A) (A) (A) (A) (A) (A) (A) (A) (A) (A)
                 (A) (A) (A) (A) (A) (A) (A) (A) (A) (A) (A) (A)
                 (A) (A) (A) (A) (A) (A) (A) (A) (A) (A) (A)
 Beta  Orbitals:
       Occupied  (A) (A) (A) (A) (A) (A) (A) (A) (A) (A) (A) (A)
                 (A) (A) (A) (A) (A) (A) (A) (A) (A) (A) (A) (A)
                 (A) (A) (A) (A) (A) (A) (A) (A) (A) (A) (A) (A)
                 (A) (A) (A) (A) (A) (A) (A) (A) (A) (A) (A) (A)
                 (A) (A) (A) (A) (A) (A) (A) (A) (A) (A) (A) (A)
                 (A) (A) (A) (A) (A) (A) (A) (A) (A) (A) (A) (A)
                 (A) (A) (A) (A) (A) (A) (A) (A) (A) (A) (A) (A)
                 (A) (A) (A) (A) (A) (A) (A) (A) (A) (A) (A) (A)
                 (A) (A) (A) (A) (A) (A) (A) (A) (A) (A) (A) (A)
                 (A) (A) (A) (A) (A) (A) (A) (A) (A) (A) (A) (A)
                 (A) (A) (A) (A) (A) (A) (A) (A) (A) (A) (A) (A)
                 (A) (A) (A) (A) (A) (A) (A) (A) (A) (A) (A) (A)
                 (A) (A) (A) (A) (A) (A) (A) (A) (A) (A) (A) (A)
                 (A) (A) (A) (A) (A) (A) (A) (A) (A) (A) (A) (A)
                 (A) (A) (A) (A) (A) (A) (A) (A) (A) (A) (A) (A)
                 (A) (A) (A) (A) (A) (A) (A) (A) (A) (A) (A) (A)
                 (A) (A) (A) (A) (A) (A) (A) (A) (A) (A) (A) (A)
                 (A) (A) (A) (A) (A) (A) (A) (A) (A) (A) (A) (A)
                 (A) (A) (A) (A) (A) (A) (A) (A) (A) (A) (A) (A)
                 (A) (A) (A) (A) (A) (A) (A) (A) (A) (A) (A) (A)
                 (A) (A) (A) (A) (A) (A) (A) (A) (A) (A) (A) (A)
                 (A) (A) (A) (A) (A) (A) (A) (A) (A) (A) (A) (A)
                 (A) (A) (A) (A) (A) (A) (A) (A) (A) (A) (A) (A)
                 (A) (A) (A) (A) (A) (A) (A) (A) (A) (A) (A) (A)
                 (A) (A) (A) (A) (A) (A) (A) (A) (A) (A) (A) (A)
                 (A) (A) (A) (A) (A) (A) (A) (A) (A) (A) (A) (A)
                 (A) (A) (A) (A) (A) (A) (A) (A) (A) (A)
       Virtual   (A) (A) (A) (A) (A) (A) (A) (A) (A) (A) (A) (A)
                 (A) (A) (A) (A) (A) (A) (A) (A) (A) (A) (A) (A)
                 (A) (A) (A) (A) (A) (A) (A) (A) (A) (A) (A) (A)
                 (A) (A) (A) (A) (A) (A) (A) (A) (A) (A) (A) (A)
                 (A) (A) (A) (A) (A) (A) (A) (A) (A) (A) (A) (A)
                 (A) (A) (A) (A) (A) (A) (A) (A) (A) (A) (A) (A)
                 (A) (A) (A) (A) (A) (A) (A) (A) (A) (A) (A) (A)
                 (A) (A) (A) (A) (A) (A) (A) (A) (A) (A) (A) (A)
                 (A) (A) (A) (A) (A) (A) (A) (A) (A) (A) (A) (A)
                 (A) (A) (A) (A) (A) (A) (A) (A) (A) (A) (A) (A)
                 (A) (A) (A) (A) (A) (A) (A) (A) (A) (A) (A) (A)
                 (A) (A) (A) (A) (A) (A) (A) (A) (A) (A) (A) (A)
                 (A) (A) (A) (A) (A) (A) (A) (A) (A) (A) (A) (A)
                 (A) (A) (A) (A) (A) (A) (A) (A) (A) (A) (A) (A)
                 (A) (A) (A) (A) (A) (A) (A) (A) (A) (A) (A) (A)
                 (A) (A) (A) (A) (A) (A) (A) (A) (A) (A) (A) (A)
                 (A) (A) (A) (A) (A) (A) (A) (A) (A) (A) (A) (A)
                 (A) (A) (A) (A) (A) (A) (A) (A) (A) (A) (A) (A)
                 (A) (A) (A) (A) (A) (A) (A) (A) (A) (A) (A) (A)
                 (A) (A) (A) (A) (A) (A) (A) (A) (A) (A) (A) (A)
                 (A) (A) (A) (A) (A) (A) (A) (A) (A) (A) (A) (A)
                 (A) (A) (A) (A) (A) (A) (A) (A) (A) (A) (A) (A)
                 (A) (A) (A) (A) (A) (A) (A) (A) (A) (A) (A) (A)
                 (A) (A) (A) (A) (A) (A) (A) (A) (A) (A) (A) (A)
                 (A) (A) (A) (A) (A) (A) (A) (A) (A) (A) (A) (A)
                 (A) (A) (A) (A) (A) (A) (A) (A) (A) (A) (A) (A)
                 (A) (A) (A) (A) (A) (A) (A) (A) (A) (A) (A) (A)
                 (A) (A) (A) (A) (A) (A) (A) (A) (A) (A) (A) (A)
                 (A) (A) (A) (A) (A) (A) (A) (A) (A) (A) (A) (A)
                 (A) (A) (A) (A) (A) (A) (A) (A) (A) (A) (A) (A)
                 (A) (A) (A) (A) (A) (A) (A) (A) (A) (A) (A) (A)
                 (A) (A) (A) (A) (A) (A) (A) (A) (A) (A) (A) (A)
                 (A) (A) (A) (A) (A) (A) (A) (A) (A) (A) (A) (A)
                 (A) (A) (A) (A) (A) (A) (A) (A) (A) (A) (A) (A)
                 (A) (A) (A) (A) (A) (A) (A) (A) (A) (A) (A) (A)
                 (A) (A) (A) (A) (A) (A) (A) (A) (A) (A) (A) (A)
                 (A) (A) (A) (A) (A) (A) (A) (A) (A) (A) (A) (A)
                 (A) (A) (A) (A) (A) (A) (A) (A) (A) (A) (A) (A)
                 (A) (A) (A) (A) (A) (A) (A) (A) (A) (A) (A) (A)
                 (A) (A) (A) (A) (A) (A) (A) (A) (A) (A) (A) (A)
                 (A) (A) (A) (A) (A) (A) (A) (A) (A) (A) (A) (A)
                 (A) (A) (A) (A) (A) (A) (A) (A) (A) (A) (A) (A)
                 (A) (A) (A) (A) (A) (A) (A) (A) (A) (A) (A) (A)
                 (A) (A) (A) (A) (A) (A) (A) (A) (A) (A) (A) (A)
                 (A) (A) (A) (A) (A) (A) (A) (A) (A) (A) (A) (A)
                 (A) (A) (A) (A) (A) (A) (A) (A) (A) (A) (A) (A)
                 (A) (A) (A) (A) (A) (A) (A) (A) (A) (A) (A) (A)
                 (A) (A) (A) (A) (A) (A) (A) (A) (A) (A) (A) (A)
                 (A) (A) (A) (A) (A) (A) (A) (A) (A) (A) (A) (A)
                 (A) (A) (A) (A) (A) (A) (A) (A) (A) (A) (A) (A)
                 (A) (A) (A) (A) (A) (A) (A) (A) (A) (A) (A) (A)
                 (A) (A) (A) (A) (A) (A) (A) (A) (A) (A) (A) (A)
                 (A) (A) (A) (A) (A) (A) (A) (A) (A) (A) (A) (A)
                 (A) (A) (A) (A) (A) (A) (A) (A) (A) (A) (A) (A)
                 (A) (A) (A) (A) (A) (A) (A) (A) (A) (A) (A) (A)
                 (A) (A) (A) (A) (A) (A) (A) (A) (A) (A) (A) (A)
                 (A) (A) (A) (A) (A) (A) (A) (A) (A) (A) (A) (A)
                 (A) (A) (A) (A) (A) (A) (A) (A) (A) (A) (A) (A)
                 (A) (A) (A) (A) (A) (A) (A) (A) (A) (A) (A) (A)
                 (A) (A) (A) (A) (A) (A) (A) (A) (A) (A) (A) (A)
                 (A) (A) (A) (A) (A) (A) (A) (A) (A) (A) (A) (A)
                 (A) (A) (A) (A) (A) (A) (A) (A) (A) (A) (A) (A)
                 (A) (A) (A) (A) (A) (A) (A) (A) (A) (A) (A) (A)
                 (A) (A) (A) (A) (A) (A) (A) (A) (A) (A) (A) (A)
                 (A) (A) (A) (A) (A) (A) (A) (A) (A) (A) (A) (A)
                 (A) (A) (A) (A) (A) (A) (A) (A) (A) (A) (A) (A)
                 (A) (A) (A) (A) (A) (A) (A) (A) (A) (A) (A) (A)
                 (A) (A) (A) (A) (A) (A) (A) (A) (A) (A) (A) (A)
                 (A) (A) (A) (A) (A) (A) (A) (A) (A) (A) (A) (A)
                 (A) (A) (A) (A) (A) (A) (A) (A) (A) (A) (A) (A)
                 (A) (A) (A) (A) (A) (A) (A) (A) (A) (A) (A) (A)
                 (A) (A) (A) (A) (A) (A) (A) (A) (A) (A) (A) (A)
                 (A) (A) (A) (A) (A) (A) (A) (A) (A) (A) (A) (A)
                 (A) (A) (A) (A) (A) (A) (A) (A) (A) (A) (A) (A)
                 (A) (A) (A) (A) (A) (A) (A) (A) (A) (A) (A) (A)
                 (A) (A) (A) (A) (A) (A) (A) (A) (A) (A) (A) (A)
                 (A) (A) (A) (A) (A) (A) (A) (A) (A) (A) (A) (A)
                 (A) (A) (A) (A) (A) (A) (A) (A) (A) (A) (A) (A)
                 (A) (A) (A) (A) (A) (A) (A) (A) (A) (A) (A) (A)
                 (A) (A) (A) (A) (A) (A) (A) (A) (A) (A) (A) (A)
                 (A) (A) (A) (A) (A) (A) (A) (A) (A) (A) (A) (A)
                 (A) (A) (A) (A) (A) (A) (A) (A) (A) (A) (A) (A)
                 (A) (A) (A) (A) (A) (A) (A) (A) (A) (A) (A) (A)
                 (A) (A) (A) (A) (A) (A) (A) (A) (A) (A) (A) (A)
                 (A) (A) (A) (A) (A) (A) (A) (A) (A) (A) (A) (A)
                 (A) (A) (A) (A) (A) (A) (A) (A) (A) (A) (A) (A)
                 (A) (A) (A) (A) (A) (A) (A) (A) (A) (A) (A) (A)
                 (A) (A) (A) (A) (A) (A) (A) (A) (A) (A) (A) (A)
                 (A) (A) (A) (A) (A) (A) (A) (A) (A) (A) (A) (A)
                 (A) (A) (A) (A) (A) (A) (A) (A) (A) (A) (A) (A)
                 (A) (A) (A) (A) (A) (A) (A) (A) (A) (A) (A) (A)
                 (A) (A) (A) (A) (A) (A) (A) (A) (A) (A) (A) (A)
                 (A) (A) (A) (A) (A) (A) (A) (A) (A) (A) (A) (A)
                 (A) (A) (A) (A) (A) (A) (A) (A) (A) (A) (A) (A)
                 (A) (A) (A) (A) (A) (A) (A) (A) (A) (A) (A) (A)
                 (A) (A) (A) (A) (A) (A) (A) (A) (A) (A) (A) (A)
                 (A) (A) (A) (A) (A) (A) (A) (A) (A) (A) (A) (A)
                 (A) (A) (A) (A) (A) (A) (A) (A) (A) (A) (A) (A)
                 (A) (A) (A) (A) (A) (A) (A) (A) (A) (A) (A) (A)
                 (A) (A) (A) (A) (A) (A) (A) (A) (A) (A) (A) (A)
                 (A) (A) (A) (A) (A) (A) (A) (A) (A) (A) (A) (A)
                 (A) (A) (A) (A) (A) (A) (A) (A) (A) (A) (A) (A)
                 (A) (A) (A) (A) (A) (A) (A) (A) (A) (A) (A) (A)
                 (A) (A) (A) (A) (A) (A) (A) (A) (A) (A) (A) (A)
                 (A) (A) (A) (A) (A) (A) (A) (A) (A) (A) (A) (A)
                 (A) (A) (A) (A) (A) (A) (A) (A) (A) (A) (A) (A)
                 (A) (A) (A) (A) (A) (A) (A) (A) (A) (A) (A) (A)
                 (A) (A) (A) (A) (A) (A) (A) (A) (A) (A) (A) (A)
                 (A) (A) (A) (A) (A) (A) (A) (A) (A) (A) (A) (A)
                 (A) (A) (A) (A) (A) (A) (A) (A) (A) (A) (A) (A)
 The electronic state of the initial guess is 2-A.
 Initial guess <Sx>= 0.0000 <Sy>= 0.0000 <Sz>= 0.5000 <S**2>= 0.7500 S= 0.5000
 Leave Link  401 at Tue Jan 27 13:44:31 2015, MaxMem= 2147483648 cpu:     573.8
 (Enter /opt/g09/l502.exe)
 UHF open shell SCF:
 Requested convergence on RMS density matrix=1.00D-08 within 128 cycles.
 Requested convergence on MAX density matrix=1.00D-06.
 Requested convergence on             energy=1.00D-06.
 No special actions if energy rises.
 Using DIIS extrapolation, IDIIS=  1040.
 Integral symmetry usage will be decided dynamically.
      1426960 words used for storage of precomputed grid.
 IEnd=    10530557 IEndB=    10530557 NGot=  2147483648 MDV=  2139981692
 LenX=  2139981692 LenY=  2136969732
 Fock matrices will be formed incrementally for  20 cycles.
 Integral accuracy reduced to 1.0D-05 until final iterations.

 Cycle   1  Pass 0  IDiag  1:
 FoFCou: FMM=T IPFlag=           0 FMFlag=      100000 FMFlg1=        2001
         NFxFlg=           0 DoJE=F BraDBF=F KetDBF=F FulRan=T
         Omega=  0.000000  0.000000  1.000000  0.000000  0.000000 ICntrl=       0 IOpCl=  1
         NMat0=    1 NMatS0=    1 NMatT0=    0 NMatD0=    1 NMtDS0=    0 NMtDT0=    0
         I1Cent=           0 NGrid=           0.
 Symmetry not used in FoFCou.
 FMM levels:  10  Number of levels for PrismC:   9
 E= -3946.62775117812    
 DIIS: error= 2.81D-02 at cycle   1 NSaved=   1.
 NSaved= 1 IEnMin= 1 EnMin= -3946.62775117812     IErMin= 1 ErrMin= 2.81D-02
 ErrMax= 2.81D-02 EMaxC= 1.00D-01 BMatC= 5.99D+00 BMatP= 5.99D+00
 IDIUse=3 WtCom= 7.19D-01 WtEn= 2.81D-01
 Coeff-Com:  0.100D+01
 Coeff-En:   0.100D+01
 Coeff:      0.100D+01
 Gap=     0.155 Goal=   None    Shift=    0.000
 Gap=     0.014 Goal=   None    Shift=    0.000
 GapD=    0.014 DampG=0.250 DampE=0.500 DampFc=0.2500 IDamp=-1.
 Damping current iteration by 2.50D-01
 RMSDP=2.14D-03 MaxDP=2.00D-01              OVMax= 3.02D-01

 Cycle   2  Pass 0  IDiag  1:
 RMSU=  3.58D-04    CP:  9.79D-01
 E= -3947.23010033295     Delta-E=       -0.602349154833 Rises=F Damp=T
 DIIS: error= 1.55D-02 at cycle   2 NSaved=   2.
 NSaved= 2 IEnMin= 2 EnMin= -3947.23010033295     IErMin= 2 ErrMin= 1.55D-02
 ErrMax= 1.55D-02 EMaxC= 1.00D-01 BMatC= 1.69D+00 BMatP= 5.99D+00
 IDIUse=3 WtCom= 8.45D-01 WtEn= 1.55D-01
 Coeff-Com: -0.939D+00 0.194D+01
 Coeff-En:   0.000D+00 0.100D+01
 Coeff:     -0.794D+00 0.179D+01
 Gap=     0.134 Goal=   None    Shift=    0.000
 Gap=     0.011 Goal=   None    Shift=    0.000
 RMSDP=1.11D-03 MaxDP=1.39D-01 DE=-6.02D-01 OVMax= 4.71D-01

 Cycle   3  Pass 0  IDiag  1:
 RMSU=  4.15D-04    CP:  9.31D-01  2.63D+00
 E= -3948.22199638241     Delta-E=       -0.991896049454 Rises=F Damp=F
 DIIS: error= 6.33D-03 at cycle   3 NSaved=   3.
 NSaved= 3 IEnMin= 3 EnMin= -3948.22199638241     IErMin= 3 ErrMin= 6.33D-03
 ErrMax= 6.33D-03 EMaxC= 1.00D-01 BMatC= 3.95D-01 BMatP= 1.69D+00
 IDIUse=3 WtCom= 9.37D-01 WtEn= 6.33D-02
 Coeff-Com: -0.494D+00 0.100D+01 0.491D+00
 Coeff-En:   0.000D+00 0.000D+00 0.100D+01
 Coeff:     -0.463D+00 0.940D+00 0.523D+00
 Gap=     0.160 Goal=   None    Shift=    0.000
 Gap=     0.002 Goal=   None    Shift=    0.000
 RMSDP=4.92D-04 MaxDP=5.64D-02 DE=-9.92D-01 OVMax= 6.34D-01

 Cycle   4  Pass 0  IDiag  1:
 RMSU=  2.12D-04    CP:  9.35D-01  2.58D+00  4.92D-01
 E= -3948.26074817513     Delta-E=       -0.038751792719 Rises=F Damp=F
 DIIS: error= 4.53D-03 at cycle   4 NSaved=   4.
 NSaved= 4 IEnMin= 4 EnMin= -3948.26074817513     IErMin= 4 ErrMin= 4.53D-03
 ErrMax= 4.53D-03 EMaxC= 1.00D-01 BMatC= 2.27D-01 BMatP= 3.95D-01
 IDIUse=3 WtCom= 9.55D-01 WtEn= 4.53D-02
 Coeff-Com: -0.184D+00 0.381D+00 0.403D+00 0.400D+00
 Coeff-En:   0.000D+00 0.000D+00 0.414D+00 0.586D+00
 Coeff:     -0.176D+00 0.364D+00 0.404D+00 0.409D+00
 Gap=     0.142 Goal=   None    Shift=    0.000
 Gap=     0.002 Goal=   None    Shift=    0.000
 RMSDP=3.88D-04 MaxDP=3.49D-02 DE=-3.88D-02 OVMax= 6.78D-01

 Cycle   5  Pass 0  IDiag  1:
 RMSU=  1.03D-04    CP:  9.35D-01  2.51D+00  7.67D-01  2.09D-01
 E= -3948.30999895071     Delta-E=       -0.049250775581 Rises=F Damp=F
 DIIS: error= 2.58D-03 at cycle   5 NSaved=   5.
 NSaved= 5 IEnMin= 5 EnMin= -3948.30999895071     IErMin= 5 ErrMin= 2.58D-03
 ErrMax= 2.58D-03 EMaxC= 1.00D-01 BMatC= 5.55D-02 BMatP= 2.27D-01
 IDIUse=3 WtCom= 9.74D-01 WtEn= 2.58D-02
 Coeff-Com: -0.590D-01 0.127D+00 0.250D+00 0.338D+00 0.345D+00
 Coeff-En:   0.000D+00 0.000D+00 0.000D+00 0.250D+00 0.750D+00
 Coeff:     -0.575D-01 0.123D+00 0.244D+00 0.336D+00 0.355D+00
 Gap=     0.137 Goal=   None    Shift=    0.000
 Gap=     0.006 Goal=   None    Shift=    0.000
 RMSDP=2.61D-04 MaxDP=2.42D-02 DE=-4.93D-02 OVMax= 4.87D-01

 Cycle   6  Pass 0  IDiag  1:
 RMSU=  4.46D-05    CP:  9.35D-01  2.54D+00  6.55D-01  5.95D-01 -3.35D-02
 E= -3948.32313315244     Delta-E=       -0.013134201730 Rises=F Damp=F
 DIIS: error= 1.78D-03 at cycle   6 NSaved=   6.
 NSaved= 6 IEnMin= 6 EnMin= -3948.32313315244     IErMin= 6 ErrMin= 1.78D-03
 ErrMax= 1.78D-03 EMaxC= 1.00D-01 BMatC= 1.43D-02 BMatP= 5.55D-02
 IDIUse=3 WtCom= 9.82D-01 WtEn= 1.78D-02
 Coeff-Com: -0.115D-01 0.275D-01 0.118D+00 0.181D+00 0.316D+00 0.369D+00
 Coeff-En:   0.000D+00 0.000D+00 0.000D+00 0.000D+00 0.281D+00 0.719D+00
 Coeff:     -0.113D-01 0.270D-01 0.116D+00 0.177D+00 0.315D+00 0.375D+00
 Gap=     0.130 Goal=   None    Shift=    0.000
 Gap=     0.011 Goal=   None    Shift=    0.000
 RMSDP=1.14D-04 MaxDP=8.59D-03 DE=-1.31D-02 OVMax= 2.11D-01

 Cycle   7  Pass 0  IDiag  1:
 RMSU=  2.31D-05    CP:  9.35D-01  2.54D+00  7.02D-01  4.30D-01  3.65D-01
                    CP:  6.06D-01
 E= -3948.32752313766     Delta-E=       -0.004389985221 Rises=F Damp=F
 DIIS: error= 4.50D-04 at cycle   7 NSaved=   7.
 NSaved= 7 IEnMin= 7 EnMin= -3948.32752313766     IErMin= 7 ErrMin= 4.50D-04
 ErrMax= 4.50D-04 EMaxC= 1.00D-01 BMatC= 1.61D-03 BMatP= 1.43D-02
 IDIUse=3 WtCom= 9.95D-01 WtEn= 4.50D-03
 Coeff-Com:  0.482D-02-0.834D-02 0.227D-01 0.388D-01 0.137D+00 0.291D+00
 Coeff-Com:  0.514D+00
 Coeff-En:   0.000D+00 0.000D+00 0.000D+00 0.000D+00 0.000D+00 0.133D+00
 Coeff-En:   0.867D+00
 Coeff:      0.480D-02-0.830D-02 0.226D-01 0.386D-01 0.137D+00 0.290D+00
 Coeff:      0.516D+00
 Gap=     0.129 Goal=   None    Shift=    0.000
 Gap=     0.014 Goal=   None    Shift=    0.000
 RMSDP=2.85D-05 MaxDP=2.45D-03 DE=-4.39D-03 OVMax= 4.45D-02

 Cycle   8  Pass 0  IDiag  1:
 RMSU=  7.16D-06    CP:  9.35D-01  2.54D+00  6.96D-01  4.62D-01  2.94D-01
                    CP:  7.50D-01  7.07D-01
 E= -3948.32797292847     Delta-E=       -0.000449790808 Rises=F Damp=F
 DIIS: error= 1.73D-04 at cycle   8 NSaved=   8.
 NSaved= 8 IEnMin= 8 EnMin= -3948.32797292847     IErMin= 8 ErrMin= 1.73D-04
 ErrMax= 1.73D-04 EMaxC= 1.00D-01 BMatC= 2.41D-04 BMatP= 1.61D-03
 IDIUse=3 WtCom= 9.98D-01 WtEn= 1.73D-03
 Coeff-Com:  0.400D-02-0.742D-02 0.628D-02 0.105D-01 0.687D-01 0.170D+00
 Coeff-Com:  0.365D+00 0.383D+00
 Coeff-En:   0.000D+00 0.000D+00 0.000D+00 0.000D+00 0.000D+00 0.000D+00
 Coeff-En:   0.828D-01 0.917D+00
 Coeff:      0.399D-02-0.741D-02 0.627D-02 0.105D-01 0.685D-01 0.170D+00
 Coeff:      0.365D+00 0.383D+00
 Gap=     0.129 Goal=   None    Shift=    0.000
 Gap=     0.014 Goal=   None    Shift=    0.000
 RMSDP=8.83D-06 MaxDP=8.49D-04 DE=-4.50D-04 OVMax= 1.01D-02

 Initial convergence to 1.0D-05 achieved.  Increase integral accuracy.
 Cycle   9  Pass 1  IDiag  1:
 E= -3948.32754424653     Delta-E=        0.000428681935 Rises=F Damp=F
 DIIS: error= 4.01D-04 at cycle   1 NSaved=   1.
 NSaved= 1 IEnMin= 1 EnMin= -3948.32754424653     IErMin= 1 ErrMin= 4.01D-04
 ErrMax= 4.01D-04 EMaxC= 1.00D-01 BMatC= 4.78D-04 BMatP= 4.78D-04
 IDIUse=3 WtCom= 9.96D-01 WtEn= 4.01D-03
 Coeff-Com:  0.100D+01
 Coeff-En:   0.100D+01
 Coeff:      0.100D+01
 Gap=     0.129 Goal=   None    Shift=    0.000
 Gap=     0.015 Goal=   None    Shift=    0.000
 RMSDP=8.83D-06 MaxDP=8.49D-04 DE= 4.29D-04 OVMax= 1.85D-02

 Cycle  10  Pass 1  IDiag  1:
 RMSU=  1.16D-04    CP:  9.99D-01
 E= -3948.32755300057     Delta-E=       -0.000008754036 Rises=F Damp=F
 DIIS: error= 2.89D-04 at cycle   2 NSaved=   2.
 NSaved= 2 IEnMin= 2 EnMin= -3948.32755300057     IErMin= 2 ErrMin= 2.89D-04
 ErrMax= 2.89D-04 EMaxC= 1.00D-01 BMatC= 3.21D-04 BMatP= 4.78D-04
 IDIUse=3 WtCom= 9.97D-01 WtEn= 2.89D-03
 Coeff-Com:  0.421D+00 0.579D+00
 Coeff-En:   0.467D+00 0.533D+00
 Coeff:      0.421D+00 0.579D+00
 Gap=     0.129 Goal=   None    Shift=    0.000
 Gap=     0.015 Goal=   None    Shift=    0.000
 RMSDP=2.45D-05 MaxDP=3.02D-03 DE=-8.75D-06 OVMax= 3.32D-02

 Cycle  11  Pass 1  IDiag  1:
 RMSU=  1.03D-05    CP:  9.99D-01  9.95D-01
 E= -3948.32740468383     Delta-E=        0.000148316740 Rises=F Damp=F
 DIIS: error= 4.62D-04 at cycle   3 NSaved=   3.
 NSaved= 3 IEnMin= 2 EnMin= -3948.32755300057     IErMin= 2 ErrMin= 2.89D-04
 ErrMax= 4.62D-04 EMaxC= 1.00D-01 BMatC= 7.79D-04 BMatP= 3.21D-04
 IDIUse=3 WtCom= 3.18D-01 WtEn= 6.82D-01
 Coeff-Com:  0.109D-01 0.604D+00 0.385D+00
 Coeff-En:   0.000D+00 0.644D+00 0.356D+00
 Coeff:      0.346D-02 0.631D+00 0.365D+00
 Gap=     0.129 Goal=   None    Shift=    0.000
 Gap=     0.015 Goal=   None    Shift=    0.000
 RMSDP=1.51D-05 MaxDP=2.05D-03 DE= 1.48D-04 OVMax= 1.92D-02

 Cycle  12  Pass 1  IDiag  1:
 RMSU=  1.76D-06    CP:  9.99D-01  1.01D+00  4.07D-01
 E= -3948.32764472214     Delta-E=       -0.000240038313 Rises=F Damp=F
 DIIS: error= 5.73D-05 at cycle   4 NSaved=   4.
 NSaved= 4 IEnMin= 4 EnMin= -3948.32764472214     IErMin= 4 ErrMin= 5.73D-05
 ErrMax= 5.73D-05 EMaxC= 1.00D-01 BMatC= 3.40D-05 BMatP= 3.21D-04
 IDIUse=1 WtCom= 1.00D+00 WtEn= 0.00D+00
 Coeff-Com: -0.278D-02 0.457D+00 0.264D+00 0.282D+00
 Coeff:     -0.278D-02 0.457D+00 0.264D+00 0.282D+00
 Gap=     0.129 Goal=   None    Shift=    0.000
 Gap=     0.015 Goal=   None    Shift=    0.000
 RMSDP=4.43D-06 MaxDP=5.22D-04 DE=-2.40D-04 OVMax= 7.31D-03

 Cycle  13  Pass 1  IDiag  1:
 RMSU=  7.94D-07    CP:  9.99D-01  1.01D+00  3.95D-01 -5.33D-02
 E= -3948.32765419186     Delta-E=       -0.000009469717 Rises=F Damp=F
 DIIS: error= 2.71D-05 at cycle   5 NSaved=   5.
 NSaved= 5 IEnMin= 5 EnMin= -3948.32765419186     IErMin= 5 ErrMin= 2.71D-05
 ErrMax= 2.71D-05 EMaxC= 1.00D-01 BMatC= 3.62D-06 BMatP= 3.40D-05
 IDIUse=1 WtCom= 1.00D+00 WtEn= 0.00D+00
 Coeff-Com: -0.353D-02 0.324D+00 0.184D+00 0.239D+00 0.256D+00
 Coeff:     -0.353D-02 0.324D+00 0.184D+00 0.239D+00 0.256D+00
 Gap=     0.129 Goal=   None    Shift=    0.000
 Gap=     0.015 Goal=   None    Shift=    0.000
 RMSDP=1.34D-06 MaxDP=1.29D-04 DE=-9.47D-06 OVMax= 2.41D-03

 Cycle  14  Pass 1  IDiag  1:
 RMSU=  2.94D-07    CP:  9.99D-01  1.01D+00  3.84D-01  2.02D-01  4.78D-01
 E= -3948.32765531817     Delta-E=       -0.000001126311 Rises=F Damp=F
 DIIS: error= 4.32D-06 at cycle   6 NSaved=   6.
 NSaved= 6 IEnMin= 6 EnMin= -3948.32765531817     IErMin= 6 ErrMin= 4.32D-06
 ErrMax= 4.32D-06 EMaxC= 1.00D-01 BMatC= 1.34D-07 BMatP= 3.62D-06
 IDIUse=1 WtCom= 1.00D+00 WtEn= 0.00D+00
 Coeff-Com: -0.161D-02 0.111D+00 0.613D-01 0.103D+00 0.114D+00 0.613D+00
 Coeff:     -0.161D-02 0.111D+00 0.613D-01 0.103D+00 0.114D+00 0.613D+00
 Gap=     0.129 Goal=   None    Shift=    0.000
 Gap=     0.015 Goal=   None    Shift=    0.000
 RMSDP=3.44D-07 MaxDP=3.85D-05 DE=-1.13D-06 OVMax= 4.39D-04

 Cycle  15  Pass 1  IDiag  1:
 RMSU=  1.60D-07    CP:  9.99D-01  1.01D+00  3.85D-01  1.71D-01  6.40D-01
                    CP:  8.49D-01
 E= -3948.32765536680     Delta-E=       -0.000000048629 Rises=F Damp=F
 DIIS: error= 3.81D-06 at cycle   7 NSaved=   7.
 NSaved= 7 IEnMin= 7 EnMin= -3948.32765536680     IErMin= 7 ErrMin= 3.81D-06
 ErrMax= 3.81D-06 EMaxC= 1.00D-01 BMatC= 1.46D-07 BMatP= 1.34D-07
 IDIUse=1 WtCom= 1.00D+00 WtEn= 0.00D+00
 Coeff-Com:  0.858D-03-0.109D+00-0.642D-01-0.507D-01-0.116D+00 0.605D+00
 Coeff-Com:  0.734D+00
 Coeff:      0.858D-03-0.109D+00-0.642D-01-0.507D-01-0.116D+00 0.605D+00
 Coeff:      0.734D+00
 Gap=     0.129 Goal=   None    Shift=    0.000
 Gap=     0.015 Goal=   None    Shift=    0.000
 RMSDP=2.91D-07 MaxDP=2.58D-05 DE=-4.86D-08 OVMax= 2.58D-04

 Cycle  16  Pass 1  IDiag  1:
 RMSU=  1.09D-07    CP:  9.99D-01  1.01D+00  3.86D-01  1.69D-01  7.13D-01
                    CP:  1.30D+00  1.02D+00
 E= -3948.32765544489     Delta-E=       -0.000000078089 Rises=F Damp=F
 DIIS: error= 2.51D-06 at cycle   8 NSaved=   8.
 NSaved= 8 IEnMin= 8 EnMin= -3948.32765544489     IErMin= 8 ErrMin= 2.51D-06
 ErrMax= 2.51D-06 EMaxC= 1.00D-01 BMatC= 4.80D-08 BMatP= 1.34D-07
 IDIUse=1 WtCom= 1.00D+00 WtEn= 0.00D+00
 Coeff-Com:  0.131D-02-0.130D+00-0.762D-01-0.754D-01-0.162D+00 0.258D+00
 Coeff-Com:  0.547D+00 0.637D+00
 Coeff:      0.131D-02-0.130D+00-0.762D-01-0.754D-01-0.162D+00 0.258D+00
 Coeff:      0.547D+00 0.637D+00
 Gap=     0.129 Goal=   None    Shift=    0.000
 Gap=     0.015 Goal=   None    Shift=    0.000
 RMSDP=2.11D-07 MaxDP=2.15D-05 DE=-7.81D-08 OVMax= 2.18D-04

 Cycle  17  Pass 1  IDiag  1:
 RMSU=  7.48D-08    CP:  9.99D-01  1.01D+00  3.86D-01  1.72D-01  7.64D-01
                    CP:  1.47D+00  1.57D+00  7.92D-01
 E= -3948.32765546554     Delta-E=       -0.000000020649 Rises=F Damp=F
 DIIS: error= 2.67D-06 at cycle   9 NSaved=   9.
 NSaved= 9 IEnMin= 9 EnMin= -3948.32765546554     IErMin= 8 ErrMin= 2.51D-06
 ErrMax= 2.67D-06 EMaxC= 1.00D-01 BMatC= 3.24D-08 BMatP= 4.80D-08
 IDIUse=1 WtCom= 1.00D+00 WtEn= 0.00D+00
 Coeff-Com:  0.879D-03-0.795D-01-0.470D-01-0.484D-01-0.115D+00 0.339D-01
 Coeff-Com:  0.240D+00 0.596D+00 0.419D+00
 Coeff:      0.879D-03-0.795D-01-0.470D-01-0.484D-01-0.115D+00 0.339D-01
 Coeff:      0.240D+00 0.596D+00 0.419D+00
 Gap=     0.129 Goal=   None    Shift=    0.000
 Gap=     0.015 Goal=   None    Shift=    0.000
 RMSDP=1.25D-07 MaxDP=1.15D-05 DE=-2.06D-08 OVMax= 1.60D-04

 Cycle  18  Pass 1  IDiag  1:
 RMSU=  3.45D-08    CP:  9.99D-01  1.01D+00  3.86D-01  1.75D-01  7.86D-01
                    CP:  1.57D+00  1.61D+00  1.23D+00  5.78D-01
 E= -3948.32765547836     Delta-E=       -0.000000012828 Rises=F Damp=F
 DIIS: error= 5.46D-07 at cycle  10 NSaved=  10.
 NSaved=10 IEnMin=10 EnMin= -3948.32765547836     IErMin=10 ErrMin= 5.46D-07
 ErrMax= 5.46D-07 EMaxC= 1.00D-01 BMatC= 2.90D-09 BMatP= 3.24D-08
 IDIUse=1 WtCom= 1.00D+00 WtEn= 0.00D+00
 Coeff-Com:  0.184D-03-0.137D-01-0.868D-02-0.859D-02-0.278D-01-0.537D-01
 Coeff-Com: -0.875D-02 0.203D+00 0.265D+00 0.653D+00
 Coeff:      0.184D-03-0.137D-01-0.868D-02-0.859D-02-0.278D-01-0.537D-01
 Coeff:     -0.875D-02 0.203D+00 0.265D+00 0.653D+00
 Gap=     0.129 Goal=   None    Shift=    0.000
 Gap=     0.015 Goal=   None    Shift=    0.000
 RMSDP=4.42D-08 MaxDP=4.64D-06 DE=-1.28D-08 OVMax= 3.32D-05

 Cycle  19  Pass 1  IDiag  1:
 RMSU=  1.87D-08    CP:  9.99D-01  1.01D+00  3.86D-01  1.76D-01  7.90D-01
                    CP:  1.61D+00  1.68D+00  1.24D+00  7.53D-01  8.69D-01
 E= -3948.32765548006     Delta-E=       -0.000000001699 Rises=F Damp=F
 DIIS: error= 3.74D-07 at cycle  11 NSaved=  11.
 NSaved=11 IEnMin=11 EnMin= -3948.32765548006     IErMin=11 ErrMin= 3.74D-07
 ErrMax= 3.74D-07 EMaxC= 1.00D-01 BMatC= 1.04D-09 BMatP= 2.90D-09
 IDIUse=1 WtCom= 1.00D+00 WtEn= 0.00D+00
 Coeff-Com: -0.923D-04 0.103D-01 0.561D-02 0.613D-02 0.114D-01-0.477D-01
 Coeff-Com: -0.640D-01-0.581D-02 0.738D-01 0.456D+00 0.555D+00
 Coeff:     -0.923D-04 0.103D-01 0.561D-02 0.613D-02 0.114D-01-0.477D-01
 Coeff:     -0.640D-01-0.581D-02 0.738D-01 0.456D+00 0.555D+00
 Gap=     0.129 Goal=   None    Shift=    0.000
 Gap=     0.015 Goal=   None    Shift=    0.000
 RMSDP=2.12D-08 MaxDP=1.70D-06 DE=-1.70D-09 OVMax= 1.19D-05

 Cycle  20  Pass 1  IDiag  1:
 RMSU=  1.08D-08    CP:  9.99D-01  1.01D+00  3.86D-01  1.76D-01  7.92D-01
                    CP:  1.62D+00  1.70D+00  1.29D+00  7.66D-01  1.05D+00
                    CP:  8.41D-01
 E= -3948.32765548054     Delta-E=       -0.000000000477 Rises=F Damp=F
 DIIS: error= 1.94D-07 at cycle  12 NSaved=  12.
 NSaved=12 IEnMin=12 EnMin= -3948.32765548054     IErMin=12 ErrMin= 1.94D-07
 ErrMax= 1.94D-07 EMaxC= 1.00D-01 BMatC= 4.44D-10 BMatP= 1.04D-09
 IDIUse=1 WtCom= 1.00D+00 WtEn= 0.00D+00
 Coeff-Com: -0.129D-03 0.123D-01 0.708D-02 0.725D-02 0.192D-01-0.240D-01
 Coeff-Com: -0.467D-01-0.672D-01-0.270D-01 0.168D+00 0.438D+00 0.513D+00
 Coeff:     -0.129D-03 0.123D-01 0.708D-02 0.725D-02 0.192D-01-0.240D-01
 Coeff:     -0.467D-01-0.672D-01-0.270D-01 0.168D+00 0.438D+00 0.513D+00
 Gap=     0.129 Goal=   None    Shift=    0.000
 Gap=     0.015 Goal=   None    Shift=    0.000
 RMSDP=1.13D-08 MaxDP=1.27D-06 DE=-4.77D-10 OVMax= 6.43D-06

 Cycle  21  Pass 1  IDiag  1:
 RMSU=  4.63D-09    CP:  9.99D-01  1.01D+00  3.86D-01  1.76D-01  7.92D-01
                    CP:  1.62D+00  1.71D+00  1.29D+00  7.87D-01  1.10D+00
                    CP:  1.13D+00  9.02D-01
 E= -3948.32765548021     Delta-E=        0.000000000327 Rises=F Damp=F
 DIIS: error= 8.32D-08 at cycle  13 NSaved=  13.
 NSaved=13 IEnMin=12 EnMin= -3948.32765548054     IErMin=13 ErrMin= 8.32D-08
 ErrMax= 8.32D-08 EMaxC= 1.00D-01 BMatC= 7.62D-11 BMatP= 4.44D-10
 IDIUse=1 WtCom= 1.00D+00 WtEn= 0.00D+00
 Coeff-Com: -0.365D-04 0.306D-02 0.186D-02 0.149D-02 0.791D-02 0.120D-02
 Coeff-Com: -0.139D-02-0.321D-01-0.433D-01-0.664D-01 0.288D-01 0.262D+00
 Coeff-Com:  0.837D+00
 Coeff:     -0.365D-04 0.306D-02 0.186D-02 0.149D-02 0.791D-02 0.120D-02
 Coeff:     -0.139D-02-0.321D-01-0.433D-01-0.664D-01 0.288D-01 0.262D+00
 Coeff:      0.837D+00
 Gap=     0.129 Goal=   None    Shift=    0.000
 Gap=     0.015 Goal=   None    Shift=    0.000
 RMSDP=6.85D-09 MaxDP=8.74D-07 DE= 3.27D-10 OVMax= 3.97D-06

 SCF Done:  E(UB3LYP) =  -3948.32765548     A.U. after   21 cycles
             Convg  =    0.6848D-08             -V/T =  2.0066
 <Sx>= 0.0000 <Sy>= 0.0000 <Sz>= 0.5000 <S**2>= 0.7550 S= 0.5025
 <L.S>= 0.000000000000E+00
 KE= 3.922490483907D+03 PE=-4.152598966748D+04 EE= 1.745989345387D+04
 Annihilation of the first spin contaminant:
 S**2 before annihilation     0.7550,   after     0.7500
 DiagDN has N=  1642 LTot=  4960 but NE2=     3 cannot use DSYEVD.
 Leave Link  502 at Tue Jan 27 14:36:34 2015, MaxMem= 2147483648 cpu:   74872.9
 (Enter /opt/g09/l601.exe)
 Copying SCF densities to generalized density rwf, IOpCl= 1 IROHF=0.

 **********************************************************************

            Population analysis using the SCF density.

 **********************************************************************

 Orbital symmetries:
 Alpha Orbitals:
       Occupied  (A) (A) (A) (A) (A) (A) (A) (A) (A) (A) (A) (A)
                 (A) (A) (A) (A) (A) (A) (A) (A) (A) (A) (A) (A)
                 (A) (A) (A) (A) (A) (A) (A) (A) (A) (A) (A) (A)
                 (A) (A) (A) (A) (A) (A) (A) (A) (A) (A) (A) (A)
                 (A) (A) (A) (A) (A) (A) (A) (A) (A) (A) (A) (A)
                 (A) (A) (A) (A) (A) (A) (A) (A) (A) (A) (A) (A)
                 (A) (A) (A) (A) (A) (A) (A) (A) (A) (A) (A) (A)
                 (A) (A) (A) (A) (A) (A) (A) (A) (A) (A) (A) (A)
                 (A) (A) (A) (A) (A) (A) (A) (A) (A) (A) (A) (A)
                 (A) (A) (A) (A) (A) (A) (A) (A) (A) (A) (A) (A)
                 (A) (A) (A) (A) (A) (A) (A) (A) (A) (A) (A) (A)
                 (A) (A) (A) (A) (A) (A) (A) (A) (A) (A) (A) (A)
                 (A) (A) (A) (A) (A) (A) (A) (A) (A) (A) (A) (A)
                 (A) (A) (A) (A) (A) (A) (A) (A) (A) (A) (A) (A)
                 (A) (A) (A) (A) (A) (A) (A) (A) (A) (A) (A) (A)
                 (A) (A) (A) (A) (A) (A) (A) (A) (A) (A) (A) (A)
                 (A) (A) (A) (A) (A) (A) (A) (A) (A) (A) (A) (A)
                 (A) (A) (A) (A) (A) (A) (A) (A) (A) (A) (A) (A)
                 (A) (A) (A) (A) (A) (A) (A) (A) (A) (A) (A) (A)
                 (A) (A) (A) (A) (A) (A) (A) (A) (A) (A) (A) (A)
[...]
    34  C    0.000000   0.000000   0.000000   0.000000   0.000000
    35  C    0.000000   0.000000   0.000000  -0.000003   0.000001
    36  C    0.000000   0.000000   0.000000   0.000000   0.000000
    37  C   -0.000002   0.000001   0.000000   0.000000   0.000000
    38  C    0.000000   0.000000   0.000000   0.000000   0.000000
    39  C    0.000000   0.000000   0.000000   0.000000   0.000000
    40  C    0.000000   0.000000   0.000000   0.000000   0.000000
    41  C    0.000000   0.000000   0.000000   0.000000   0.000000
    42  C    0.000000   0.000000   0.000000   0.000000   0.000000
    43  C    0.000000   0.000000   0.000000   0.000000   0.000000
    44  C    0.000000   0.000000   0.000000   0.000000   0.000000
    45  C    0.000000   0.000000   0.000000   0.000000   0.000000
    46  C    0.000000   0.000000   0.000000   0.000000   0.000000
    47  C    0.000000   0.000000   0.000000   0.000000   0.000000
    48  C    0.000000   0.000000   0.000000   0.000004  -0.000028
    49  C    0.000000   0.000000  -0.000002   0.000101   0.000027
    50  C    0.000000   0.000000   0.000003   0.000164   0.000246
    51  C    0.000000   0.000000   0.000001   0.000000   0.000010
    52  C    0.000000   0.000000   0.000000  -0.000003   0.000001
    53  C    0.000003  -0.000026   0.000000   0.000000   0.000000
    54  C    0.000088   0.000022   0.000000   0.000000   0.000000
    55  C    0.000153   0.000245   0.000000   0.000000   0.000000
    56  C    0.000005   0.000005   0.000000   0.000000   0.000000
    57  C   -0.000004   0.000001   0.000000   0.000000   0.000000
    58  C    0.000000   0.000000   0.000000   0.000000   0.000000
    59  C    0.000000   0.000000   0.000000   0.000000   0.000000
    60  C    0.000000   0.000000   0.000000   0.000000   0.000000
    61  C    0.000000   0.000000   0.000000   0.000000   0.000000
    62  C    0.000000   0.000000   0.000000   0.000000   0.000000
    63  C    0.000000   0.000000   0.000000   0.000000   0.000000
    64  C    0.000000   0.000000   0.000000   0.000000   0.000000
    65  C    0.000000   0.000000   0.000000   0.000000   0.000000
    66  C    0.000000   0.000000   0.000000   0.000000   0.000000
    67  C    0.000000   0.000000   0.000000   0.000000   0.000000
    68  C    0.000000   0.000000   0.000000   0.000000   0.000000
    69  C    0.000000   0.000000   0.000000   0.000000   0.000000
    70  C    0.000000   0.000000   0.000000   0.000000   0.000000
    71  C    0.000000   0.000000   0.000000   0.000000   0.000000
    72  C    0.000000   0.000000   0.000000   0.000000   0.000000
    73  C    0.000000   0.000000   0.000000   0.000000   0.000000
    74  C    0.000000   0.000000   0.000000   0.000000   0.000000
    75  C    0.000000   0.000000   0.000000   0.000000   0.000000
    76  C    0.000000   0.000000   0.000000   0.000000   0.000000
    77  C    0.000000   0.000000   0.000000   0.000000   0.000000
    78  H    0.000000   0.000000   0.000000   0.000000   0.000000
    79  H    0.000000   0.000000   0.000000   0.000000   0.000000
    80  H    0.000000   0.000000   0.000000   0.000000   0.000000
    81  H    0.000000   0.000000   0.000000   0.000000   0.000000
    82  H    0.000000   0.000000   0.000000   0.000000   0.000000
    83  H    0.000000   0.000000   0.000000   0.000000   0.000000
    84  H    0.000000   0.000000   0.000000   0.000000   0.000000
    85  H    0.000000   0.000000   0.000000   0.000000   0.000000
    86  H    0.000000   0.000000   0.000000   0.000000   0.000000
    87  H    0.000000   0.000000   0.000000   0.000000   0.000000
    88  H    0.000000   0.000000   0.000000   0.000000   0.000000
    89  H    0.000000   0.000000   0.000000   0.000000   0.000000
    90  O    0.000000   0.000000   0.000000   0.000000   0.000000
    91  C    0.000000   0.000000   0.000000   0.000000   0.000000
    92  O    0.000000   0.000000   0.000000   0.000000   0.000000
    93  C    0.000000   0.000000   0.000000   0.000000   0.000000
    94  O    0.000000   0.000000   0.000000   0.000000   0.000000
    95  O    0.000000   0.000000   0.000000   0.000000   0.000000
    96  C    0.000000   0.000000   0.000000   0.000000   0.000000
    97  C    0.000000   0.000000   0.000000   0.000000   0.000000
    98  H    0.000000   0.000000   0.000000   0.000000   0.000000
    99  H    0.000000   0.000000   0.000000   0.000000   0.000000
   100  H    0.000000   0.000000   0.000000   0.000000   0.000000
   101  H    0.000000   0.000000   0.000000   0.000000   0.000000
   102  H    0.000000   0.000000   0.000000   0.000000   0.000000
   103  H    0.000000   0.000000   0.000000   0.000000   0.000000
   104  H    0.000000   0.000000   0.000000   0.000000   0.000000
   105  H    0.000000   0.000000   0.000000   0.000000   0.000000
   106  H    0.000000   0.000000   0.000000   0.000000   0.000000
   107  H    0.000000   0.000000   0.000000   0.000000   0.000000
   108  H    0.000000   0.000000   0.000000   0.000000   0.000000
   109  H    0.000000   0.000000   0.000000   0.000000   0.000000
   110  H    0.000000   0.000000   0.000000   0.000000   0.000000
   111  H    0.000000   0.000000   0.000000   0.000000   0.000000
   112  H    0.000000   0.000000   0.000000   0.000000   0.000000
   113  H    0.000000   0.000000   0.000000   0.000000   0.000000
   114  H    0.000000   0.000000   0.000000   0.000000   0.000000
   115  H    0.000000   0.000000   0.000000   0.000000   0.000000
   116  H    0.000000   0.000000   0.000000   0.000000   0.000000
   117  H    0.000000   0.000000   0.000000   0.000000   0.000000
   118  H    0.000000   0.000000   0.000000   0.000000   0.000000
   119  H    0.000000   0.000000   0.000000   0.000000   0.000000
   120  H    0.000000   0.000000   0.000000   0.000000   0.000000
   121  H    0.000000   0.000000   0.000000   0.000000   0.000000
   122  H    0.000000   0.000000   0.000000   0.000000   0.000000
   123  H    0.000000   0.000000   0.000000   0.000000   0.000000
   124  H    0.000000   0.000000   0.000000   0.000000   0.000000
   125  H    0.000000   0.000000   0.000000   0.000000   0.000000
   126  H    0.000000   0.000000   0.000000   0.000000   0.000000
   127  H    0.000000   0.000000   0.000000   0.000000   0.000000
   128  H    0.000000   0.000000   0.000000   0.000000   0.000000
   129  H    0.000000   0.000000   0.000000   0.000000   0.000000
   130  H    0.000000   0.000000   0.000000   0.000000   0.000000
   131  H    0.000000   0.000000   0.000000   0.000000   0.000000
   132  H    0.000000   0.000000   0.000000   0.000000   0.000000
   133  H    0.000000   0.000000   0.000000   0.000000   0.000000
   134  H    0.000051  -0.000057   0.000000   0.000000   0.000000
   135  H    0.000000   0.000000   0.000000   0.000000   0.000000
   136  H   -0.000001   0.000001   0.000000   0.000000   0.000000
   137  H    0.000000   0.000000   0.000000   0.000000   0.000000
   138  H    0.000000   0.000000   0.000000   0.000000   0.000000
   139  H    0.000000   0.000000   0.000000  -0.000002   0.000002
   140  H    0.000000   0.000000   0.000001   0.000048  -0.000053
   141  H    0.000000   0.000000   0.000000   0.000001  -0.000001
   142  O    0.000000   0.000000   0.000000   0.000000   0.000000
   143  C    0.000000   0.000000   0.000000   0.000000   0.000000
   144  O    0.000000   0.000000   0.000003  -0.000216  -0.000226
   145  C    0.000000   0.000000   0.000013  -0.000165  -0.000114
   146  O   -0.000204  -0.000217   0.000000   0.000000   0.000000
   147  C   -0.000158  -0.000117   0.000000   0.000000   0.000000
   148  O    0.000000   0.000000   0.000000   0.000000   0.000000
   149  C    0.000000   0.000000   0.000000   0.000000   0.000000
   150  H    0.000000   0.000000   0.000000   0.000000   0.000000
   151  H    0.000000   0.000000   0.000000   0.000000   0.000000
   152  H    0.000000   0.000000   0.000000   0.000000   0.000000
   153  H    0.000000   0.000000   0.000000   0.000000   0.000000
   154  H    0.000000   0.000000   0.000000   0.000000   0.000000
   155  H    0.000000   0.000000   0.000000   0.000000   0.000000
   156  H   -0.000008   0.000005   0.000000   0.000000   0.000000
   157  H    0.001053  -0.000353   0.000000   0.000000   0.000000
   158  H   -0.000353   0.001118   0.000000   0.000000   0.000000
   159  H    0.000000   0.000000  -0.000030  -0.000003   0.000001
   160  H    0.000000   0.000000  -0.000003   0.001106  -0.000368
   161  H    0.000000   0.000000   0.000001  -0.000368   0.001165
 Mulliken atomic spin densities:
              1
     1  C   -0.004752
     2  C    0.004255
     3  C    0.033407
     4  C    0.029159
     5  C    0.006660
     6  C    0.004447
     7  C    0.028778
     8  C    0.026437
     9  C    0.006051
    10  C    0.005773
    11  C    0.009874
    12  C    0.022589
    13  C   -0.004093
    14  C   -0.002727
    15  C    0.022866
    16  C    0.012655
    17  C    0.004890
    18  C    0.007490
    19  C    0.011098
    20  C    0.026174
    21  C   -0.005075
    22  C   -0.003258
    23  C    0.020849
    24  C    0.010977
    25  C    0.004172
    26  N    0.083042
    27  N    0.085788
    28  N    0.096172
    29  N    0.079281
    30  C   -0.002418
    31  C   -0.003447
    32  C   -0.003334
    33  C   -0.002730
    34  C   -0.003251
    35  C   -0.002297
    36  C   -0.002896
    37  C   -0.003780
    38  C    0.019119
    39  C   -0.005153
    40  C    0.020449
    41  C   -0.006834
    42  C    0.014984
    43  C    0.018399
    44  C   -0.005597
    45  C    0.019467
    46  C   -0.005901
    47  C    0.014525
    48  C    0.018201
    49  C   -0.004796
    50  C    0.019629
    51  C   -0.006346
    52  C    0.014165
    53  C    0.018292
    54  C   -0.005561
    55  C    0.019089
    56  C   -0.006059
    57  C    0.014549
    58  C    0.020995
    59  C   -0.006412
    60  C    0.021721
    61  C   -0.006042
    62  C    0.015498
    63  C    0.022075
    64  C   -0.007442
    65  C    0.023418
    66  C   -0.005741
    67  C    0.016242
    68  C    0.014465
    69  C   -0.006053
    70  C    0.019373
    71  C   -0.005372
    72  C    0.018251
    73  C    0.017588
    74  C   -0.005866
    75  C    0.018500
    76  C   -0.004823
    77  C    0.013027
    78  H   -0.000275
    79  H   -0.000394
    80  H   -0.001188
    81  H    0.000014
    82  H   -0.000089
    83  H   -0.001051
    84  H   -0.000032
    85  H   -0.000975
    86  H    0.000000
    87  H   -0.001031
    88  H   -0.000294
    89  H   -0.000339
    90  O    0.008651
    91  C   -0.000702
    92  O    0.010718
    93  C   -0.000862
    94  O    0.009116
    95  O    0.008656
    96  C   -0.000704
    97  C   -0.000742
    98  H    0.000329
    99  H   -0.000701
   100  H   -0.000832
   101  H    0.000231
   102  H    0.000212
   103  H   -0.000861
   104  H    0.000254
   105  H   -0.000741
   106  H   -0.000814
   107  H    0.000215
   108  H    0.000239
   109  H   -0.000764
   110  H    0.000345
   111  H   -0.001010
   112  H    0.000235
   113  H   -0.000743
   114  H    0.000784
   115  H    0.000801
   116  H   -0.000015
   117  H    0.000642
   118  H    0.000648
   119  H   -0.000014
   120  H   -0.000015
   121  H    0.000681
   122  H    0.000680
   123  H    0.000637
   124  H    0.000648
   125  H   -0.000014
   126  H    0.000257
   127  H   -0.000720
   128  H    0.000280
   129  H   -0.001032
   130  H   -0.000812
   131  H    0.000292
   132  H    0.000196
   133  H   -0.000602
   134  H    0.000237
   135  H   -0.000832
   136  H    0.000273
   137  H   -0.000751
   138  H   -0.000669
   139  H    0.000309
   140  H    0.000202
   141  H   -0.000823
   142  O    0.009896
   143  C   -0.000777
   144  O    0.008910
   145  C   -0.000724
   146  O    0.008361
   147  C   -0.000681
   148  O    0.008359
   149  C   -0.000674
   150  H   -0.000013
   151  H    0.000649
   152  H    0.000732
   153  H   -0.000012
   154  H    0.000613
   155  H    0.000625
   156  H   -0.000014
   157  H    0.000623
   158  H    0.000627
   159  H   -0.000014
   160  H    0.000664
   161  H    0.000663
 Sum of Mulliken atomic spin densities =   1.00000
 Electronic spatial extent (au):  <R**2>=         110389.8856
 Charge=              1.0000 electrons
 Dipole moment (field-independent basis, Debye):
    X=              1.2915    Y=             -4.1129    Z=              0.8713  Tot=              4.3981
 Quadrupole moment (field-independent basis, Debye-Ang):
   XX=           -338.0169   YY=           -387.0876   ZZ=           -441.8984
   XY=             10.6852   XZ=             -9.7303   YZ=              5.5363
 Traceless Quadrupole moment (field-independent basis, Debye-Ang):
   XX=             50.9840   YY=              1.9134   ZZ=            -52.8974
   XY=             10.6852   XZ=             -9.7303   YZ=              5.5363
 Octapole moment (field-independent basis, Debye-Ang**2):
  XXX=            -80.5547  YYY=           -145.9865  ZZZ=             29.1841  XYY=            164.0058
  XXY=           -409.6890  XXZ=             43.0318  XZZ=             16.0358  YZZ=           -172.8509
  YYZ=             48.1939  XYZ=           -126.8349
 Hexadecapole moment (field-independent basis, Debye-Ang**3):
 XXXX=         -52495.4080 YYYY=         -52249.5776 ZZZZ=         -21773.5334 XXXY=            327.2630
 XXXZ=           -541.9513 YYYX=            491.2080 YYYZ=           -169.7026 ZZZX=             45.2591
 ZZZY=            167.5518 XXYY=         -16017.7171 XXZZ=         -10305.1439 YYZZ=         -11074.2079
 XXYZ=            688.2378 YYXZ=           1097.8730 ZZXY=             83.3921
 N-N= 1.619527807423D+04 E-N=-6.225921319173D+04  KE= 5.882752561211D+03
 Leave Link  601 at Tue Jan 27 14:36:39 2015, MaxMem= 2147483648 cpu:     111.0
 (Enter /opt/g09/l9999.exe)
 1\1\GINC-CHPC-SCANDIUM\SP\UB3LYP\CC-pVDZ\C81H68N4O8(1+,2)\JARVIST\27-J
 an-2015\0\\#p sp B3LYP/cc-pVDZ\\Auto Spiro; and yes I said yes I will 
 Yes.\\1,2\C,0,-0.0331,0.060747,-0.001812\C,0,-0.820358,0.962808,0.9564
 41\C,0,-0.538927,0.626776,2.295284\C,0,0.42737,-0.472949,2.312332\C,0,
 0.73717,-0.825783,0.983991\C,0,-0.918918,-0.727713,-0.97428\C,0,-0.573
 627,-0.432104,-2.307696\C,0,0.532333,0.52691,-2.307051\C,0,0.865748,0.
 834899,-0.973448\C,0,-1.945755,-1.608096,-0.673696\C,0,-2.651084,-2.22
 8906,-1.723731\C,0,-2.29982,-1.938042,-3.056637\C,0,-1.275444,-1.04148
 6,-3.350504\C,0,1.036241,-1.161764,3.364158\C,0,1.931299,-2.191856,3.0
 84695\C,0,2.247127,-2.540492,1.756728\C,0,1.638003,-1.838496,0.697493\
 C,0,-1.711954,1.974079,0.638108\C,0,-2.340905,2.691719,1.675054\C,0,-2
 .055305,2.35807,3.013783\C,0,-1.168742,1.329841,3.325229\C,0,1.244348,
 1.125571,-3.349454\C,0,2.267542,2.023036,-3.054567\C,0,2.607727,2.3252
 45,-1.721472\C,0,1.892244,1.716007,-0.672038\N,0,-3.705003,-3.13496,-1
 .44404\N,0,3.166629,-3.585582,1.488657\N,0,-3.247234,3.73893,1.373045\
 N,0,3.662172,3.233442,-1.444701\C,0,4.858523,3.187046,-2.214758\C,0,-2
 .979103,4.629396,0.295036\C,0,3.544537,4.17504,-0.386226\C,0,-4.420187
 ,3.926445,2.155976\C,0,-3.589957,-4.063873,-0.372783\C,0,-4.878048,-3.
 134774,-2.25027\C,0,4.315349,-3.760559,2.309992\C,0,2.93872,-4.480068,
 0.405189\C,0,4.698282,-5.032854,2.749736\C,0,5.837375,-5.21401,3.53756
 9\C,0,6.604161,-4.108534,3.920588\C,0,6.221583,-2.828378,3.493665\C,0,
 5.101962,-2.658337,2.691881\C,0,-4.668352,-4.307737,0.485357\C,0,-4.57
 3783,-5.240618,1.520556\C,0,-3.376556,-5.933133,1.72901\C,0,-2.286184,
 -5.685311,0.882139\C,0,-2.393802,-4.773025,-0.158332\C,0,-5.435745,-4.
 332286,-2.71199\C,0,-6.598708,-4.337691,-3.485735\C,0,-7.212304,-3.129
 087,-3.832014\C,0,-6.653933,-1.92336,-3.382554\C,0,-5.511458,-1.926943
 ,-2.595091\C,0,3.978003,-4.839286,-0.460084\C,0,3.768058,-5.735734,-1.
 510459\C,0,2.494527,-6.272825,-1.725621\C,0,1.444075,-5.909656,-0.8697
 54\C,0,1.664978,-5.035162,0.185204\C,0,-1.702432,5.172087,0.109602\C,0
 ,-1.433725,6.042011,-0.949801\C,0,-2.456796,6.403267,-1.83368\C,0,-3.7
 41713,5.873136,-1.647554\C,0,-3.99597,4.991886,-0.605989\C,0,-5.217063
 ,2.838806,2.532745\C,0,-6.365743,3.017644,3.306675\C,0,-6.751683,4.304
 528,3.697147\C,0,-5.966069,5.400997,3.313722\C,0,-4.813063,5.213809,2.
 564561\C,0,2.340496,4.87178,-0.172045\C,0,2.229003,5.798305,0.855166\C
 ,0,3.32266,6.075023,1.688972\C,0,4.526601,5.394563,1.481573\C,0,4.6256
 28,4.446378,0.460586\C,0,5.479466,1.966882,-2.504869\C,0,6.646503,1.91
 3144,-3.27031\C,0,7.228113,3.095552,-3.740271\C,0,6.619077,4.32396,-3.
 44408\C,0,5.447061,4.367811,-2.702376\H,0,2.152528,1.937271,0.358419\H
 ,0,-1.932013,2.217704,-0.396538\H,0,-2.534179,2.918533,3.810034\H,0,-0
 .962821,1.09558,4.366778\H,0,0.808492,-0.914287,4.398044\H,0,2.394153,
 -2.740943,3.898165\H,0,0.999684,0.91069,-4.386743\H,0,2.816553,2.5021,
 -3.858884\H,0,-1.022483,-0.83574,-4.387651\H,0,-2.839488,-2.426052,-3.
 861703\H,0,1.880913,-2.093488,-0.329289\H,0,-2.215068,-1.819865,0.3564
 11\O,0,3.110292,7.015651,2.659269\C,0,4.17954,7.317725,3.538605\O,0,-7
 .860942,4.597023,4.443285\C,0,-8.693482,3.524466,4.84775\O,0,7.729856,
 -4.166813,4.696438\O,0,-3.168862,-6.860661,2.712999\C,0,-4.236833,-7.1
 39737,3.601022\C,0,8.15209,-5.436045,5.163494\H,0,6.829091,-1.979072,3
 .790987\H,0,4.823808,-1.664049,2.356752\H,0,-5.598,-3.766916,0.338265\
 H,0,-5.433407,-5.403652,2.160812\H,0,6.102873,-6.216167,3.854839\H,0,4
 .102019,-5.895092,2.468064\H,0,-1.365313,-6.235964,1.049599\H,0,-1.545
 398,-4.59928,-0.812894\H,0,5.561138,3.915059,0.317157\H,0,5.389174,5.5
 78353,2.112122\H,0,1.300814,6.336053,1.02471\H,0,1.487925,4.674269,-0.
 814338\H,0,-6.954178,2.149374,3.581209\H,0,-4.933649,1.838121,2.221766
 \H,0,-6.272006,6.394109,3.628157\H,0,-4.206847,6.069605,2.284916\H,0,-
 8.15439,2.810042,5.484925\H,0,-9.112815,2.9887,3.985218\H,0,-9.506497,
 3.974428,5.421005\H,0,-5.112124,-7.538531,3.070073\H,0,-4.537656,-6.24
 7422,4.166802\H,0,-3.862078,-7.895346,4.294277\H,0,9.052235,-5.255028,
 5.754257\H,0,8.394823,-6.113944,4.333666\H,0,7.391038,-5.908026,5.7997
 65\H,0,5.047771,7.719239,2.998255\H,0,4.49261,6.435864,4.113909\H,0,3.
 799726,8.077902,4.224011\H,0,-4.525337,6.155154,-2.344023\H,0,-4.99172
 5,4.57853,-0.479636\H,0,-0.431644,6.440671,-1.061943\H,0,-0.905423,4.9
 05451,0.796831\H,0,5.041948,1.045722,-2.132726\H,0,7.095172,0.948089,-
 3.477096\H,0,7.076033,5.233905,-3.820867\H,0,4.977816,5.323329,-2.4896
 47\H,0,4.599726,-5.992272,-2.156969\H,0,4.96701,-4.41859,-0.307173\H,0
 ,0.462512,-6.340757,-1.042546\H,0,0.846489,-4.769304,0.846969\H,0,-5.0
 96254,-0.988321,-2.241595\H,0,-7.143716,-0.992377,-3.651059\H,0,-7.002
 419,-5.286424,-3.821058\H,0,-4.958795,-5.273963,-2.458628\O,0,-2.30936
 6,7.253154,-2.89474\C,0,-1.027366,7.810942,-3.12874\O,0,-8.344892,-3.0
 15541,-4.591262\C,0,-8.943435,-4.204321,-5.076802\O,0,2.173547,-7.1499
 03,-2.725012\C,0,3.195226,-7.53278,-3.62882\O,0,8.372478,3.161908,-4.4
 87088\C,0,9.029158,1.948121,-4.808743\H,0,-1.131575,8.442339,-4.013275
 \H,0,-0.276865,7.033406,-3.325294\H,0,-0.692414,8.426399,-2.282825\H,0
 ,9.902805,2.226682,-5.401273\H,0,8.386083,1.284147,-5.402421\H,0,9.359
 037,1.414298,-3.907102\H,0,2.728359,-8.22049,-4.336659\H,0,4.01948,-8.
 046853,-3.115541\H,0,3.597315,-6.668866,-4.175298\H,0,-9.819106,-3.888
 886,-5.647487\H,0,-9.263811,-4.861565,-4.256792\H,0,-8.263395,-4.76082
 3,-5.736096\\Version=EM64L-G09RevA.02\State=2-A\HF=-3948.3276555\S2=0.
 755012\S2-1=0.\S2A=0.750024\RMSD=6.848e-09\Dipole=0.5081031,-1.6181436
 ,0.342813\Quadrupole=37.9053828,1.4225495,-39.3279323,7.944179,-7.2342
 473,4.1161105\PG=C01 [X(C81H68N4O8)]\\@


 THE 2ND LAW OF THERMODYNAMICS HAS THE SAME
 DEGREE OF TRUTH AS THE STATEMENT THAT IF YOU THROW
 A TUMBLERFULL OF WATER INTO THE SEA, YOU CANNOT GET
 THE SAME TUMBLERFULL OF WATER OUT AGAIN.
          - J.C. MAXWELL, LETTER TO LORD RAYLEIGH, DECEMBER 6,1870
 Job cpu time:  0 days 21 hours  8 minutes 25.5 seconds.
 File lengths (MBytes):  RWF=   2510 Int=      0 D2E=      0 Chk=    125 Scr=      1
 Normal termination of Gaussian 09 at Tue Jan 27 14:36:39 2015.
