 Entering Gaussian System, Link 0=g09
 Input=sp_2_B3LYP_cc-pVDZ.com
 Output=sp_2_B3LYP_cc-pVDZ.log
 Initial command:
 /opt/g09/l1.exe /home/jarvist/2014-07_SPIRO/b3lyp-631gs_opt/delta_scf/cation/Gau-16072.inp -scrdir=/home/jarvist/2014-07_SPIRO/b3lyp-631gs_opt/delta_scf/cation/
 Default is to use a total of   8 processors:
                                8 via shared-memory
                                1 via Linda
 Entering Link 1 = /opt/g09/l1.exe PID=     16074.
  
 Copyright (c) 1988,1990,1992,1993,1995,1998,2003,2009, Gaussian, Inc.
                  All Rights Reserved.
  
 This is part of the Gaussian(R) 09 program.  It is based on
 the Gaussian(R) 03 system (copyright 2003, Gaussian, Inc.),
 the Gaussian(R) 98 system (copyright 1998, Gaussian, Inc.),
 the Gaussian(R) 94 system (copyright 1995, Gaussian, Inc.),
 the Gaussian 92(TM) system (copyright 1992, Gaussian, Inc.),
 the Gaussian 90(TM) system (copyright 1990, Gaussian, Inc.),
 the Gaussian 88(TM) system (copyright 1988, Gaussian, Inc.),
 the Gaussian 86(TM) system (copyright 1986, Carnegie Mellon
 University), and the Gaussian 82(TM) system (copyright 1983,
 Carnegie Mellon University). Gaussian is a federally registered
 trademark of Gaussian, Inc.
  
 This software contains proprietary and confidential information,
 including trade secrets, belonging to Gaussian, Inc.
  
 This software is provided under written license and may be
 used, copied, transmitted, or stored only in accord with that
 written license.
  
 The following legend is applicable only to US Government
 contracts under FAR:
  
                    RESTRICTED RIGHTS LEGEND
  
 Use, reproduction and disclosure by the US Government is
 subject to restrictions as set forth in subparagraphs (a)
 and (c) of the Commercial Computer Software - Restricted
 Rights clause in FAR 52.227-19.
  
 Gaussian, Inc.
 340 Quinnipiac St., Bldg. 40, Wallingford CT 06492
  
  
 ---------------------------------------------------------------
 Warning -- This program may not be used in any manner that
 competes with the business of Gaussian, Inc. or will provide
 assistance to any competitor of Gaussian, Inc.  The licensee
 of this program is prohibited from giving any competitor of
 Gaussian, Inc. access to this program.  By using this program,
 the user acknowledges that Gaussian, Inc. is engaged in the
 business of creating and licensing software in the field of
 computational chemistry and represents and warrants to the
 licensee that it is not a competitor of Gaussian, Inc. and that
 it will not use this program in any manner prohibited above.
 ---------------------------------------------------------------
  

 Cite this work as:
 Gaussian 09, Revision A.02,
 M. J. Frisch, G. W. Trucks, H. B. Schlegel, G. E. Scuseria, 
 M. A. Robb, J. R. Cheeseman, G. Scalmani, V. Barone, B. Mennucci, 
 G. A. Petersson, H. Nakatsuji, M. Caricato, X. Li, H. P. Hratchian, 
 A. F. Izmaylov, J. Bloino, G. Zheng, J. L. Sonnenberg, M. Hada, 
 M. Ehara, K. Toyota, R. Fukuda, J. Hasegawa, M. Ishida, T. Nakajima, 
 Y. Honda, O. Kitao, H. Nakai, T. Vreven, J. A. Montgomery, Jr., 
 J. E. Peralta, F. Ogliaro, M. Bearpark, J. J. Heyd, E. Brothers, 
 K. N. Kudin, V. N. Staroverov, R. Kobayashi, J. Normand, 
 K. Raghavachari, A. Rendell, J. C. Burant, S. S. Iyengar, J. Tomasi, 
 M. Cossi, N. Rega, J. M. Millam, M. Klene, J. E. Knox, J. B. Cross, 
 V. Bakken, C. Adamo, J. Jaramillo, R. Gomperts, R. E. Stratmann, 
 O. Yazyev, A. J. Austin, R. Cammi, C. Pomelli, J. W. Ochterski, 
 R. L. Martin, K. Morokuma, V. G. Zakrzewski, G. A. Voth, 
 P. Salvador, J. J. Dannenberg, S. Dapprich, A. D. Daniels, 
 O. Farkas, J. B. Foresman, J. V. Ortiz, J. Cioslowski, 
 and D. J. Fox, Gaussian, Inc., Wallingford CT, 2009.
 
 ******************************************
 Gaussian 09:  EM64L-G09RevA.02 11-Jun-2009
                27-Jan-2015 
 ******************************************
 %mem=16GB
 %nprocs=24
 Will use up to   24 processors via shared memory.
 Default route:  MaxDisk=100GB
 -------------------
 #p sp B3LYP/cc-pVDZ
 -------------------
 1/38=1/1;
 2/12=2,17=6,18=5,40=1/2;
 3/5=16,11=2,16=1,25=1,30=1,74=-5/1,2,3;
 4//1;
 5/5=2,38=5/2;
 6/7=2,8=2,9=2,10=2,28=1/1;
 99/5=1,9=1/99;
 Leave Link    1 at Tue Jan 27 16:03:31 2015, MaxMem= 2147483648 cpu:       1.7
 (Enter /opt/g09/l101.exe)
 ------------------------------------------
 Auto Spiro; and yes I said yes I will Yes.
 ------------------------------------------
 Symbolic Z-matrix:
 Charge =  1 Multiplicity = 2
 C                    -0.03857   0.03991   0.01749 
 C                    -0.88172   0.86747   0.99319 
 C                    -0.65682   0.44033   2.31961 
 C                     0.36249  -0.60977   2.31619 
 C                     0.76715  -0.84308   0.98984 
 C                    -0.87786  -0.80019  -0.96169 
 C                    -0.37904  -0.66172  -2.26952 
 C                     0.72858   0.29519  -2.25709 
 C                     0.89543   0.78168  -0.94549 
 C                    -1.98941  -1.58626  -0.69056 
 C                    -2.62009  -2.27479  -1.74626 
 C                    -2.07972  -2.18047  -3.04582 
 C                    -0.97944  -1.3723   -3.31114 
 C                     0.96521  -1.32959   3.34932 
 C                     1.97352  -2.24472   3.0559 
 C                     2.42147  -2.43377   1.7352 
 C                     1.79181  -1.72656   0.69086 
 C                    -1.81313   1.85475   0.70931 
 C                    -2.53715   2.44655   1.76426 
 C                    -2.29293   2.03425   3.08496 
 C                    -1.36639   1.03189   3.36459 
 C                     1.57287   0.73953  -3.27912 
 C                     2.57263   1.66182  -2.98258 
 C                     2.7397    2.14837  -1.67656 
 C                     1.8882    1.70814  -0.65009 
 N                    -3.79122  -3.04029  -1.53406 
 N                     3.50941  -3.30403   1.44957 
 N                    -3.52548   3.43178   1.48263 
 N                     3.80839   3.06499  -1.4055 
 C                     5.1416    2.59163  -1.4981 
 C                    -3.21133   4.50449   0.59966 
 C                     3.51736   4.21761  -0.6209 
 C                    -4.61145   3.626     2.38633 
 C                    -4.17337  -3.48117  -0.23518 
 C                    -4.78184  -3.11593  -2.55673 
 C                     4.42712  -3.68492   2.47174 
 C                     3.50753  -4.06538   0.24452 
 C                     4.67762  -5.04217   2.72065 
 C                     5.58142  -5.44636   3.70164 
 C                     6.24086  -4.49244   4.47678 
 C                     6.00096  -3.1382    4.24467 
 C                     5.11911  -2.72393   3.24491 
 C                    -5.40655  -3.10378   0.30269 
 C                    -5.83248  -3.56938   1.54919 
 C                    -5.00152  -4.40819   2.2856 
 C                    -3.76294  -4.79955   1.76958 
 C                    -3.3494   -4.36261   0.50663 
 C                    -5.30296  -4.37602  -2.9406 
 C                    -6.29248  -4.44564  -3.92712 
 C                    -6.75191  -3.28185  -4.54972 
 C                    -6.23517  -2.04019  -4.18813 
 C                    -5.26336  -1.96571  -3.18918 
 C                     4.68562  -4.17259  -0.53669 
 C                     4.67816  -4.93732  -1.70684 
 C                     3.50847  -5.5746   -2.12887 
 C                     2.3414   -5.45973  -1.37916 
 C                     2.35372  -4.71994  -0.19628 
 C                    -1.97684   5.16483   0.67948 
 C                    -1.69371   6.26332  -0.1301 
 C                    -2.64914   6.7278   -1.03648 
 C                    -3.87425   6.06988  -1.14084 
 C                    -4.16118   4.95992  -0.34335 
 C                    -5.48958   2.55547   2.68907 
 C                    -6.55059   2.75596   3.5756 
 C                    -6.76947   4.01421   4.14482 
 C                    -5.92332   5.07536   3.83958 
 C                    -4.84712   4.87157   2.97385 
 C                     2.60456   5.17866  -1.11869 
 C                     2.30897   6.31391  -0.36 
 C                     2.92142   6.51045   0.88226 
 C                     3.82884   5.57619   1.37242 
 C                     4.115     4.43406   0.62181 
 C                     5.44912   1.23931  -1.26992 
 C                     6.75714   0.76671  -1.36647 
 C                     7.80042   1.64035  -1.67294 
 C                     7.51232   2.98511  -1.9078 
 C                     6.20347   3.46273  -1.84248 
 H                     2.03023   2.07484   0.36246 
 H                    -2.00176   2.16502  -0.31413 
 H                    -2.84094   2.50385   3.89519 
 H                    -1.19775   0.72713   4.3945 
 H                     0.66156  -1.18228   4.38279 
 H                     2.44153  -2.8003    3.86074 
 H                     1.45449   0.37475  -4.2964 
 H                     3.23848   2.02119  -3.76115 
 H                    -0.59896  -1.30092  -4.32721 
 H                    -2.54523  -2.73592  -3.85253 
 H                     2.1188   -1.86553  -0.3345 
 H                    -2.38975  -1.64813   0.31614 
 H                     6.49765  -2.36796   4.82744 
 O                     4.89657  -1.37577   3.1036 
 H                    -6.04252  -2.4459   -0.28198 
 H                    -6.80232  -3.271     1.93739 
 H                     5.75211  -6.50624   3.86999 
 H                     4.14674  -5.7838    2.13159 
 H                    -3.1323   -5.46349   2.34934 
 O                    -2.18546  -4.73833  -0.08706 
 H                     4.81977   3.69586   0.99292 
 H                     4.30698   5.724     2.3363 
 H                     1.62351   7.06174  -0.74267 
 O                     2.0875    4.92198  -2.35571 
 H                    -7.22363   1.93942   3.81093 
 O                    -5.22368   1.36915   2.07089 
 H                    -6.08472   6.05553   4.27873 
 H                    -4.17272   5.68945   2.74084 
 H                    -4.63576   6.39821  -1.84192 
 O                    -5.40579   4.39238  -0.4666 
 H                    -2.44381   7.59352  -1.66043 
 H                    -0.73725   6.76667  -0.02596 
 H                    -1.24494   4.81492   1.40094 
 H                     4.64516   0.5586   -1.01126 
 H                     6.95544  -0.286    -1.18255 
 H                     8.82419   1.28255  -1.73765 
 H                     8.29468   3.69534  -2.15964 
 O                     5.99201   4.80425  -2.07441 
 H                     5.57688  -5.0228   -2.30683 
 O                     5.7776   -3.49541  -0.07781 
 H                     3.5188   -6.15223  -3.0489 
 H                     1.42704  -5.94663  -1.70608 
 H                     1.45358  -4.62395   0.40132 
 H                    -4.85398  -1.00551  -2.89017 
 H                    -6.59151  -1.13263  -4.66659 
 H                    -7.51458  -3.35696  -5.31999 
 H                    -6.69795  -5.40544  -4.22616 
 O                    -4.7813   -5.45913  -2.30043 
 H                     6.9382   -4.79599   5.25269 
 H                    -5.30931  -4.77096   3.26249 
 H                    -7.60735   4.15347   4.82243 
 H                     2.68652   7.40292   1.45587 
 C                     5.44546   5.11098  -3.35932 
 C                     1.12314   5.81614  -2.88891 
 C                    -5.43639   3.06571  -1.00488 
 C                    -5.9899    0.23085   2.43161 
 C                    -5.27918  -6.74429  -2.6312 
 C                    -1.36407  -5.67748   0.58474 
 C                     7.00803  -3.64496  -0.76838 
 C                     5.47301  -0.76419   1.94606 
 H                     6.1009    4.74134  -4.1599 
 H                     5.39111   6.2012   -3.41153 
 H                     4.44102   4.6922   -3.47958 
 H                     0.84537   5.40504  -3.86125 
 H                     1.53939   6.82339  -3.02761 
 H                     0.2323    5.87288  -2.25209 
 H                    -6.49372   2.82176  -1.13334 
 H                    -4.97573   2.34294  -0.32607 
 H                    -4.93606   3.03358  -1.98208 
 H                    -5.56538  -0.60593   1.87564 
 H                    -7.04706   0.35368   2.15907 
 H                    -5.91699   0.02517   3.50736 
 H                    -4.72826  -7.44667  -2.00322 
 H                    -5.10228  -6.98703  -3.68758 
 H                    -6.35245  -6.83083  -2.41604 
 H                    -0.53545  -5.88574  -0.09344 
 H                    -1.90443  -6.61103   0.79116 
 H                    -0.97064  -5.27276   1.52657 
 H                     7.73796  -3.06359  -0.20229 
 H                     6.94701  -3.25493  -1.79302 
 H                     7.32627  -4.69491  -0.79925 
 H                     6.56988  -0.80418   1.99383 
 H                     5.14854   0.27791   1.96048 
 H                     5.13531  -1.24622   1.0249 
 
 NAtoms=    161 NQM=    161 NQMF=      0 NMic=      0 NMicF=      0 NTot=    161.
                    Isotopes and Nuclear Properties:
 (Nuclear quadrupole moments (NQMom) in fm**2, nuclear magnetic moments (NMagM)
  in nuclear magnetons)

  Atom         1           2           3           4           5           6           7           8           9          10
 IAtWgt=          12          12          12          12          12          12          12          12          12          12
 AtmWgt=  12.0000000  12.0000000  12.0000000  12.0000000  12.0000000  12.0000000  12.0000000  12.0000000  12.0000000  12.0000000
 NucSpn=           0           0           0           0           0           0           0           0           0           0
 AtZEff=   0.0000000   0.0000000   0.0000000   0.0000000   0.0000000   0.0000000   0.0000000   0.0000000   0.0000000   0.0000000
 NQMom=    0.0000000   0.0000000   0.0000000   0.0000000   0.0000000   0.0000000   0.0000000   0.0000000   0.0000000   0.0000000
 NMagM=    0.0000000   0.0000000   0.0000000   0.0000000   0.0000000   0.0000000   0.0000000   0.0000000   0.0000000   0.0000000

  Atom        11          12          13          14          15          16          17          18          19          20
 IAtWgt=          12          12          12          12          12          12          12          12          12          12
 AtmWgt=  12.0000000  12.0000000  12.0000000  12.0000000  12.0000000  12.0000000  12.0000000  12.0000000  12.0000000  12.0000000
 NucSpn=           0           0           0           0           0           0           0           0           0           0
 AtZEff=   0.0000000   0.0000000   0.0000000   0.0000000   0.0000000   0.0000000   0.0000000   0.0000000   0.0000000   0.0000000
 NQMom=    0.0000000   0.0000000   0.0000000   0.0000000   0.0000000   0.0000000   0.0000000   0.0000000   0.0000000   0.0000000
 NMagM=    0.0000000   0.0000000   0.0000000   0.0000000   0.0000000   0.0000000   0.0000000   0.0000000   0.0000000   0.0000000

  Atom        21          22          23          24          25          26          27          28          29          30
 IAtWgt=          12          12          12          12          12          14          14          14          14          12
 AtmWgt=  12.0000000  12.0000000  12.0000000  12.0000000  12.0000000  14.0030740  14.0030740  14.0030740  14.0030740  12.0000000
 NucSpn=           0           0           0           0           0           2           2           2           2           0
 AtZEff=   0.0000000   0.0000000   0.0000000   0.0000000   0.0000000   0.0000000   0.0000000   0.0000000   0.0000000   0.0000000
 NQMom=    0.0000000   0.0000000   0.0000000   0.0000000   0.0000000   2.0440000   2.0440000   2.0440000   2.0440000   0.0000000
 NMagM=    0.0000000   0.0000000   0.0000000   0.0000000   0.0000000   0.4037610   0.4037610   0.4037610   0.4037610   0.0000000

  Atom        31          32          33          34          35          36          37          38          39          40
 IAtWgt=          12          12          12          12          12          12          12          12          12          12
 AtmWgt=  12.0000000  12.0000000  12.0000000  12.0000000  12.0000000  12.0000000  12.0000000  12.0000000  12.0000000  12.0000000
 NucSpn=           0           0           0           0           0           0           0           0           0           0
 AtZEff=   0.0000000   0.0000000   0.0000000   0.0000000   0.0000000   0.0000000   0.0000000   0.0000000   0.0000000   0.0000000
 NQMom=    0.0000000   0.0000000   0.0000000   0.0000000   0.0000000   0.0000000   0.0000000   0.0000000   0.0000000   0.0000000
 NMagM=    0.0000000   0.0000000   0.0000000   0.0000000   0.0000000   0.0000000   0.0000000   0.0000000   0.0000000   0.0000000

  Atom        41          42          43          44          45          46          47          48          49          50
 IAtWgt=          12          12          12          12          12          12          12          12          12          12
 AtmWgt=  12.0000000  12.0000000  12.0000000  12.0000000  12.0000000  12.0000000  12.0000000  12.0000000  12.0000000  12.0000000
 NucSpn=           0           0           0           0           0           0           0           0           0           0
 AtZEff=   0.0000000   0.0000000   0.0000000   0.0000000   0.0000000   0.0000000   0.0000000   0.0000000   0.0000000   0.0000000
 NQMom=    0.0000000   0.0000000   0.0000000   0.0000000   0.0000000   0.0000000   0.0000000   0.0000000   0.0000000   0.0000000
 NMagM=    0.0000000   0.0000000   0.0000000   0.0000000   0.0000000   0.0000000   0.0000000   0.0000000   0.0000000   0.0000000

  Atom        51          52          53          54          55          56          57          58          59          60
 IAtWgt=          12          12          12          12          12          12          12          12          12          12
 AtmWgt=  12.0000000  12.0000000  12.0000000  12.0000000  12.0000000  12.0000000  12.0000000  12.0000000  12.0000000  12.0000000
 NucSpn=           0           0           0           0           0           0           0           0           0           0
 AtZEff=   0.0000000   0.0000000   0.0000000   0.0000000   0.0000000   0.0000000   0.0000000   0.0000000   0.0000000   0.0000000
 NQMom=    0.0000000   0.0000000   0.0000000   0.0000000   0.0000000   0.0000000   0.0000000   0.0000000   0.0000000   0.0000000
 NMagM=    0.0000000   0.0000000   0.0000000   0.0000000   0.0000000   0.0000000   0.0000000   0.0000000   0.0000000   0.0000000

  Atom        61          62          63          64          65          66          67          68          69          70
 IAtWgt=          12          12          12          12          12          12          12          12          12          12
 AtmWgt=  12.0000000  12.0000000  12.0000000  12.0000000  12.0000000  12.0000000  12.0000000  12.0000000  12.0000000  12.0000000
 NucSpn=           0           0           0           0           0           0           0           0           0           0
 AtZEff=   0.0000000   0.0000000   0.0000000   0.0000000   0.0000000   0.0000000   0.0000000   0.0000000   0.0000000   0.0000000
 NQMom=    0.0000000   0.0000000   0.0000000   0.0000000   0.0000000   0.0000000   0.0000000   0.0000000   0.0000000   0.0000000
 NMagM=    0.0000000   0.0000000   0.0000000   0.0000000   0.0000000   0.0000000   0.0000000   0.0000000   0.0000000   0.0000000

  Atom        71          72          73          74          75          76          77          78          79          80
 IAtWgt=          12          12          12          12          12          12          12           1           1           1
 AtmWgt=  12.0000000  12.0000000  12.0000000  12.0000000  12.0000000  12.0000000  12.0000000   1.0078250   1.0078250   1.0078250
 NucSpn=           0           0           0           0           0           0           0           1           1           1
 AtZEff=   0.0000000   0.0000000   0.0000000   0.0000000   0.0000000   0.0000000   0.0000000   0.0000000   0.0000000   0.0000000
 NQMom=    0.0000000   0.0000000   0.0000000   0.0000000   0.0000000   0.0000000   0.0000000   0.0000000   0.0000000   0.0000000
 NMagM=    0.0000000   0.0000000   0.0000000   0.0000000   0.0000000   0.0000000   0.0000000   2.7928460   2.7928460   2.7928460

  Atom        81          82          83          84          85          86          87          88          89          90
 IAtWgt=           1           1           1           1           1           1           1           1           1           1
 AtmWgt=   1.0078250   1.0078250   1.0078250   1.0078250   1.0078250   1.0078250   1.0078250   1.0078250   1.0078250   1.0078250
 NucSpn=           1           1           1           1           1           1           1           1           1           1
 AtZEff=   0.0000000   0.0000000   0.0000000   0.0000000   0.0000000   0.0000000   0.0000000   0.0000000   0.0000000   0.0000000
 NQMom=    0.0000000   0.0000000   0.0000000   0.0000000   0.0000000   0.0000000   0.0000000   0.0000000   0.0000000   0.0000000
 NMagM=    2.7928460   2.7928460   2.7928460   2.7928460   2.7928460   2.7928460   2.7928460   2.7928460   2.7928460   2.7928460

  Atom        91          92          93          94          95          96          97          98          99         100
 IAtWgt=          16           1           1           1           1           1          16           1           1           1
 AtmWgt=  15.9949146   1.0078250   1.0078250   1.0078250   1.0078250   1.0078250  15.9949146   1.0078250   1.0078250   1.0078250
 NucSpn=           0           1           1           1           1           1           0           1           1           1
 AtZEff=   0.0000000   0.0000000   0.0000000   0.0000000   0.0000000   0.0000000   0.0000000   0.0000000   0.0000000   0.0000000
 NQMom=    0.0000000   0.0000000   0.0000000   0.0000000   0.0000000   0.0000000   0.0000000   0.0000000   0.0000000   0.0000000
 NMagM=    0.0000000   2.7928460   2.7928460   2.7928460   2.7928460   2.7928460   0.0000000   2.7928460   2.7928460   2.7928460

  Atom       101         102         103         104         105         106         107         108         109         110
 IAtWgt=          16           1          16           1           1           1          16           1           1           1
 AtmWgt=  15.9949146   1.0078250  15.9949146   1.0078250   1.0078250   1.0078250  15.9949146   1.0078250   1.0078250   1.0078250
 NucSpn=           0           1           0           1           1           1           0           1           1           1
 AtZEff=   0.0000000   0.0000000   0.0000000   0.0000000   0.0000000   0.0000000   0.0000000   0.0000000   0.0000000   0.0000000
 NQMom=    0.0000000   0.0000000   0.0000000   0.0000000   0.0000000   0.0000000   0.0000000   0.0000000   0.0000000   0.0000000
 NMagM=    0.0000000   2.7928460   0.0000000   2.7928460   2.7928460   2.7928460   0.0000000   2.7928460   2.7928460   2.7928460

  Atom       111         112         113         114         115         116         117         118         119         120
 IAtWgt=           1           1           1           1          16           1          16           1           1           1
 AtmWgt=   1.0078250   1.0078250   1.0078250   1.0078250  15.9949146   1.0078250  15.9949146   1.0078250   1.0078250   1.0078250
 NucSpn=           1           1           1           1           0           1           0           1           1           1
 AtZEff=   0.0000000   0.0000000   0.0000000   0.0000000   0.0000000   0.0000000   0.0000000   0.0000000   0.0000000   0.0000000
 NQMom=    0.0000000   0.0000000   0.0000000   0.0000000   0.0000000   0.0000000   0.0000000   0.0000000   0.0000000   0.0000000
 NMagM=    2.7928460   2.7928460   2.7928460   2.7928460   0.0000000   2.7928460   0.0000000   2.7928460   2.7928460   2.7928460

  Atom       121         122         123         124         125         126         127         128         129         130
 IAtWgt=           1           1           1           1          16           1           1           1           1          12
 AtmWgt=   1.0078250   1.0078250   1.0078250   1.0078250  15.9949146   1.0078250   1.0078250   1.0078250   1.0078250  12.0000000
 NucSpn=           1           1           1           1           0           1           1           1           1           0
 AtZEff=   0.0000000   0.0000000   0.0000000   0.0000000   0.0000000   0.0000000   0.0000000   0.0000000   0.0000000   0.0000000
 NQMom=    0.0000000   0.0000000   0.0000000   0.0000000   0.0000000   0.0000000   0.0000000   0.0000000   0.0000000   0.0000000
 NMagM=    2.7928460   2.7928460   2.7928460   2.7928460   0.0000000   2.7928460   2.7928460   2.7928460   2.7928460   0.0000000

  Atom       131         132         133         134         135         136         137         138         139         140
 IAtWgt=          12          12          12          12          12          12          12           1           1           1
 AtmWgt=  12.0000000  12.0000000  12.0000000  12.0000000  12.0000000  12.0000000  12.0000000   1.0078250   1.0078250   1.0078250
 NucSpn=           0           0           0           0           0           0           0           1           1           1
 AtZEff=   0.0000000   0.0000000   0.0000000   0.0000000   0.0000000   0.0000000   0.0000000   0.0000000   0.0000000   0.0000000
 NQMom=    0.0000000   0.0000000   0.0000000   0.0000000   0.0000000   0.0000000   0.0000000   0.0000000   0.0000000   0.0000000
 NMagM=    0.0000000   0.0000000   0.0000000   0.0000000   0.0000000   0.0000000   0.0000000   2.7928460   2.7928460   2.7928460

  Atom       141         142         143         144         145         146         147         148         149         150
 IAtWgt=           1           1           1           1           1           1           1           1           1           1
 AtmWgt=   1.0078250   1.0078250   1.0078250   1.0078250   1.0078250   1.0078250   1.0078250   1.0078250   1.0078250   1.0078250
 NucSpn=           1           1           1           1           1           1           1           1           1           1
 AtZEff=   0.0000000   0.0000000   0.0000000   0.0000000   0.0000000   0.0000000   0.0000000   0.0000000   0.0000000   0.0000000
 NQMom=    0.0000000   0.0000000   0.0000000   0.0000000   0.0000000   0.0000000   0.0000000   0.0000000   0.0000000   0.0000000
 NMagM=    2.7928460   2.7928460   2.7928460   2.7928460   2.7928460   2.7928460   2.7928460   2.7928460   2.7928460   2.7928460

  Atom       151         152         153         154         155         156         157         158         159         160
 IAtWgt=           1           1           1           1           1           1           1           1           1           1
 AtmWgt=   1.0078250   1.0078250   1.0078250   1.0078250   1.0078250   1.0078250   1.0078250   1.0078250   1.0078250   1.0078250
 NucSpn=           1           1           1           1           1           1           1           1           1           1
 AtZEff=   0.0000000   0.0000000   0.0000000   0.0000000   0.0000000   0.0000000   0.0000000   0.0000000   0.0000000   0.0000000
 NQMom=    0.0000000   0.0000000   0.0000000   0.0000000   0.0000000   0.0000000   0.0000000   0.0000000   0.0000000   0.0000000
 NMagM=    2.7928460   2.7928460   2.7928460   2.7928460   2.7928460   2.7928460   2.7928460   2.7928460   2.7928460   2.7928460

  Atom       161
 IAtWgt=           1
 AtmWgt=   1.0078250
 NucSpn=           1
 AtZEff=   0.0000000
 NQMom=    0.0000000
 NMagM=    2.7928460
 Leave Link  101 at Tue Jan 27 16:03:31 2015, MaxMem= 2147483648 cpu:       3.8
 (Enter /opt/g09/l202.exe)
 Stoichiometry    C81H68N4O8(1+,2)
 Framework group  C1[X(C81H68N4O8)]
 Deg. of freedom   477
 Full point group                 C1      NOp   1
 Largest Abelian subgroup         C1      NOp   1
 Largest concise Abelian subgroup C1      NOp   1
                         Standard orientation:                         
 ---------------------------------------------------------------------
 Center     Atomic      Atomic             Coordinates (Angstroms)
 Number     Number       Type             X           Y           Z
 ---------------------------------------------------------------------
      1          6           0       -0.038574    0.039905    0.017485
      2          6           0       -0.881721    0.867467    0.993186
      3          6           0       -0.656824    0.440334    2.319610
      4          6           0        0.362486   -0.609770    2.316194
      5          6           0        0.767150   -0.843081    0.989835
      6          6           0       -0.877857   -0.800187   -0.961694
      7          6           0       -0.379038   -0.661720   -2.269524
      8          6           0        0.728580    0.295187   -2.257089
      9          6           0        0.895434    0.781675   -0.945490
     10          6           0       -1.989411   -1.586259   -0.690558
     11          6           0       -2.620094   -2.274790   -1.746255
     12          6           0       -2.079715   -2.180468   -3.045817
     13          6           0       -0.979440   -1.372299   -3.311135
     14          6           0        0.965207   -1.329589    3.349316
     15          6           0        1.973521   -2.244716    3.055900
     16          6           0        2.421473   -2.433773    1.735195
     17          6           0        1.791809   -1.726557    0.690856
     18          6           0       -1.813127    1.854752    0.709311
     19          6           0       -2.537150    2.446550    1.764255
     20          6           0       -2.292934    2.034252    3.084964
     21          6           0       -1.366393    1.031888    3.364589
     22          6           0        1.572866    0.739527   -3.279120
     23          6           0        2.572629    1.661817   -2.982575
     24          6           0        2.739695    2.148371   -1.676557
     25          6           0        1.888199    1.708139   -0.650090
     26          7           0       -3.791219   -3.040291   -1.534061
     27          7           0        3.509407   -3.304025    1.449569
     28          7           0       -3.525479    3.431784    1.482628
     29          7           0        3.808388    3.064986   -1.405503
     30          6           0        5.141604    2.591626   -1.498095
     31          6           0       -3.211326    4.504487    0.599664
     32          6           0        3.517360    4.217611   -0.620904
     33          6           0       -4.611451    3.626000    2.386329
     34          6           0       -4.173371   -3.481173   -0.235175
     35          6           0       -4.781840   -3.115927   -2.556727
     36          6           0        4.427118   -3.684920    2.471739
     37          6           0        3.507529   -4.065381    0.244515
     38          6           0        4.677617   -5.042167    2.720653
     39          6           0        5.581424   -5.446355    3.701639
     40          6           0        6.240861   -4.492443    4.476784
     41          6           0        6.000955   -3.138198    4.244666
     42          6           0        5.119111   -2.723927    3.244911
     43          6           0       -5.406548   -3.103783    0.302694
     44          6           0       -5.832483   -3.569378    1.549188
     45          6           0       -5.001520   -4.408194    2.285595
     46          6           0       -3.762943   -4.799552    1.769579
     47          6           0       -3.349398   -4.362612    0.506630
     48          6           0       -5.302956   -4.376022   -2.940604
     49          6           0       -6.292476   -4.445644   -3.927118
     50          6           0       -6.751909   -3.281851   -4.549723
     51          6           0       -6.235175   -2.040186   -4.188126
     52          6           0       -5.263361   -1.965706   -3.189183
     53          6           0        4.685615   -4.172586   -0.536690
     54          6           0        4.678156   -4.937319   -1.706835
     55          6           0        3.508470   -5.574595   -2.128865
     56          6           0        2.341405   -5.459729   -1.379157
     57          6           0        2.353721   -4.719943   -0.196281
     58          6           0       -1.976841    5.164832    0.679481
     59          6           0       -1.693705    6.263318   -0.130104
     60          6           0       -2.649141    6.727802   -1.036476
     61          6           0       -3.874252    6.069880   -1.140842
     62          6           0       -4.161176    4.959921   -0.343350
     63          6           0       -5.489583    2.555471    2.689066
     64          6           0       -6.550586    2.755960    3.575599
     65          6           0       -6.769471    4.014208    4.144822
     66          6           0       -5.923321    5.075361    3.839579
     67          6           0       -4.847120    4.871572    2.973853
     68          6           0        2.604563    5.178655   -1.118692
     69          6           0        2.308970    6.313915   -0.359996
     70          6           0        2.921419    6.510451    0.882262
     71          6           0        3.828841    5.576190    1.372422
     72          6           0        4.114999    4.434059    0.621808
     73          6           0        5.449122    1.239307   -1.269919
     74          6           0        6.757142    0.766710   -1.366465
     75          6           0        7.800424    1.640351   -1.672943
     76          6           0        7.512320    2.985113   -1.907795
     77          6           0        6.203471    3.462733   -1.842484
     78          1           0        2.030232    2.074838    0.362457
     79          1           0       -2.001765    2.165016   -0.314125
     80          1           0       -2.840941    2.503845    3.895190
     81          1           0       -1.197747    0.727134    4.394501
     82          1           0        0.661557   -1.182277    4.382793
     83          1           0        2.441527   -2.800304    3.860736
     84          1           0        1.454486    0.374748   -4.296404
     85          1           0        3.238476    2.021194   -3.761149
     86          1           0       -0.598956   -1.300915   -4.327214
     87          1           0       -2.545225   -2.735916   -3.852534
     88          1           0        2.118799   -1.865532   -0.334499
     89          1           0       -2.389754   -1.648127    0.316136
     90          1           0        6.497652   -2.367958    4.827445
     91          8           0        4.896574   -1.375766    3.103597
     92          1           0       -6.042521   -2.445898   -0.281980
     93          1           0       -6.802316   -3.271001    1.937391
     94          1           0        5.752115   -6.506235    3.869989
     95          1           0        4.146737   -5.783796    2.131586
     96          1           0       -3.132295   -5.463491    2.349342
     97          8           0       -2.185459   -4.738332   -0.087055
     98          1           0        4.819767    3.695860    0.992922
     99          1           0        4.306981    5.723996    2.336296
    100          1           0        1.623514    7.061736   -0.742668
    101          8           0        2.087496    4.921978   -2.355712
    102          1           0       -7.223634    1.939415    3.810933
    103          8           0       -5.223676    1.369154    2.070894
    104          1           0       -6.084720    6.055525    4.278731
    105          1           0       -4.172724    5.689452    2.740842
    106          1           0       -4.635758    6.398213   -1.841915
    107          8           0       -5.405793    4.392376   -0.466596
    108          1           0       -2.443808    7.593518   -1.660428
    109          1           0       -0.737254    6.766674   -0.025961
    110          1           0       -1.244936    4.814924    1.400939
    111          1           0        4.645161    0.558597   -1.011263
    112          1           0        6.955443   -0.286002   -1.182550
    113          1           0        8.824194    1.282544   -1.737646
    114          1           0        8.294680    3.695339   -2.159640
    115          8           0        5.992013    4.804248   -2.074406
    116          1           0        5.576883   -5.022802   -2.306827
    117          8           0        5.777599   -3.495413   -0.077807
    118          1           0        3.518795   -6.152234   -3.048899
    119          1           0        1.427038   -5.946629   -1.706083
    120          1           0        1.453581   -4.623947    0.401317
    121          1           0       -4.853981   -1.005511   -2.890168
    122          1           0       -6.591514   -1.132631   -4.666586
    123          1           0       -7.514583   -3.356960   -5.319994
    124          1           0       -6.697952   -5.405437   -4.226156
    125          8           0       -4.781304   -5.459128   -2.300432
    126          1           0        6.938200   -4.795991    5.252694
    127          1           0       -5.309312   -4.770961    3.262488
    128          1           0       -7.607352    4.153472    4.822431
    129          1           0        2.686521    7.402925    1.455867
    130          6           0        5.445462    5.110984   -3.359315
    131          6           0        1.123136    5.816139   -2.888906
    132          6           0       -5.436387    3.065710   -1.004882
    133          6           0       -5.989895    0.230851    2.431610
    134          6           0       -5.279180   -6.744290   -2.631201
    135          6           0       -1.364070   -5.677476    0.584738
    136          6           0        7.008035   -3.644958   -0.768380
    137          6           0        5.473006   -0.764189    1.946060
    138          1           0        6.100899    4.741342   -4.159896
    139          1           0        5.391111    6.201201   -3.411531
    140          1           0        4.441016    4.692199   -3.479584
    141          1           0        0.845372    5.405039   -3.861247
    142          1           0        1.539392    6.823391   -3.027606
    143          1           0        0.232300    5.872881   -2.252094
    144          1           0       -6.493722    2.821757   -1.133339
    145          1           0       -4.975732    2.342940   -0.326071
    146          1           0       -4.936058    3.033578   -1.982081
    147          1           0       -5.565378   -0.605929    1.875640
    148          1           0       -7.047061    0.353678    2.159072
    149          1           0       -5.916993    0.025173    3.507355
    150          1           0       -4.728263   -7.446666   -2.003223
    151          1           0       -5.102282   -6.987034   -3.687577
    152          1           0       -6.352449   -6.830829   -2.416040
    153          1           0       -0.535452   -5.885735   -0.093440
    154          1           0       -1.904425   -6.611032    0.791163
    155          1           0       -0.970642   -5.272755    1.526565
    156          1           0        7.737960   -3.063590   -0.202291
    157          1           0        6.947010   -3.254933   -1.793015
    158          1           0        7.326269   -4.694905   -0.799251
    159          1           0        6.569878   -0.804180    1.993830
    160          1           0        5.148538    0.277912    1.960478
    161          1           0        5.135311   -1.246219    1.024905
 ---------------------------------------------------------------------
 Rotational constants (GHZ):      0.0212149      0.0175306      0.0125730
 Leave Link  202 at Tue Jan 27 16:03:31 2015, MaxMem= 2147483648 cpu:       0.2
 (Enter /opt/g09/l301.exe)
 Standard basis: CC-pVDZ (5D, 7F)
 Ernie: Thresh=  0.10000D-02 Tol=  0.10000D-05 Strict=F.
 Ernie:  186 primitive shells out of 2386 were deleted.
 There are  1642 symmetry adapted basis functions of A   symmetry.
 Integral buffers will be    131072 words long.
 Raffenetti 2 integral format.
 Two-electron integral symmetry is turned on.
  1642 basis functions,  3545 primitive gaussians,  1735 cartesian basis functions
   323 alpha electrons      322 beta electrons
       nuclear repulsion energy     17443.0532504940 Hartrees.
 IExCor=  402 DFT=T Ex+Corr=B3LYP ExCW=0 ScaHFX=  0.200000
 ScaDFX=  0.800000  0.720000  1.000000  0.810000 ScalE2=  1.000000  1.000000
 IRadAn=      0 IRanWt=     -1 IRanGd=            0 ICorTp=0
 NAtoms=  161 NActive=  161 NUniq=  161 SFac= 7.50D-01 NAtFMM=   80 NAOKFM=T Big=T
 Leave Link  301 at Tue Jan 27 16:03:31 2015, MaxMem= 2147483648 cpu:       2.0
 (Enter /opt/g09/l302.exe)
 NPDir=0 NMtPBC=     1 NCelOv=     1 NCel=       1 NClECP=     1 NCelD=      1
         NCelK=      1 NCelE2=     1 NClLst=     1 CellRange=     0.0.
 One-electron integrals computed using PRISM.
 NBasis=  1642 RedAO= T  NBF=  1642
 NBsUse=  1642 1.00D-06 NBFU=  1642
 Precomputing XC quadrature grid using
 IXCGrd= 2 IRadAn=           0 IRanWt=          -1 IRanGd=           0 AccXCQ= 1.00D-10.
 NRdTot=   10498 NPtTot=     1345312 NUsed=     1420904 NTot=     1420936
 NSgBfM=  1310  1334  1336  1345  1358 NAtAll=   161   161.
 Leave Link  302 at Tue Jan 27 16:03:53 2015, MaxMem= 2147483648 cpu:     510.0
 (Enter /opt/g09/l303.exe)
 DipDrv:  MaxL=1.
 Leave Link  303 at Tue Jan 27 16:03:54 2015, MaxMem= 2147483648 cpu:      38.1
 (Enter /opt/g09/l401.exe)
 Harris functional with IExCor=  402 diagonalized for initial guess.
 ExpMin= 1.22D-01 ExpMax= 1.17D+04 ExpMxC= 4.01D+02 IAcc=1 IRadAn=         1 AccDes= 0.00D+00
 HarFok:  IExCor=  402 AccDes= 0.00D+00 IRadAn=         1 IDoV= 1
 ScaDFX=  1.000000  1.000000  1.000000  1.000000
 FoFCou: FMM=F IPFlag=           0 FMFlag=      100000 FMFlg1=        2001
         NFxFlg=           0 DoJE=T BraDBF=F KetDBF=T FulRan=T
         Omega=  0.000000  0.000000  1.000000  0.000000  0.000000 ICntrl=     500 IOpCl=  0
         NMat0=    1 NMatS0=    1 NMatT0=    0 NMatD0=    1 NMtDS0=    0 NMtDT0=    0
         I1Cent=           4 NGrid=           0.
 Petite list used in FoFCou.
 Harris En= -3948.38708061088    
 Initial guess orbital symmetries:
 Alpha Orbitals:
       Occupied  (A) (A) (A) (A) (A) (A) (A) (A) (A) (A) (A) (A)
                 (A) (A) (A) (A) (A) (A) (A) (A) (A) (A) (A) (A)
                 (A) (A) (A) (A) (A) (A) (A) (A) (A) (A) (A) (A)
                 (A) (A) (A) (A) (A) (A) (A) (A) (A) (A) (A) (A)
                 (A) (A) (A) (A) (A) (A) (A) (A) (A) (A) (A) (A)
                 (A) (A) (A) (A) (A) (A) (A) (A) (A) (A) (A) (A)
                 (A) (A) (A) (A) (A) (A) (A) (A) (A) (A) (A) (A)
                 (A) (A) (A) (A) (A) (A) (A) (A) (A) (A) (A) (A)
                 (A) (A) (A) (A) (A) (A) (A) (A) (A) (A) (A) (A)
                 (A) (A) (A) (A) (A) (A) (A) (A) (A) (A) (A) (A)
                 (A) (A) (A) (A) (A) (A) (A) (A) (A) (A) (A) (A)
                 (A) (A) (A) (A) (A) (A) (A) (A) (A) (A) (A) (A)
                 (A) (A) (A) (A) (A) (A) (A) (A) (A) (A) (A) (A)
                 (A) (A) (A) (A) (A) (A) (A) (A) (A) (A) (A) (A)
                 (A) (A) (A) (A) (A) (A) (A) (A) (A) (A) (A) (A)
                 (A) (A) (A) (A) (A) (A) (A) (A) (A) (A) (A) (A)
                 (A) (A) (A) (A) (A) (A) (A) (A) (A) (A) (A) (A)
                 (A) (A) (A) (A) (A) (A) (A) (A) (A) (A) (A) (A)
                 (A) (A) (A) (A) (A) (A) (A) (A) (A) (A) (A) (A)
                 (A) (A) (A) (A) (A) (A) (A) (A) (A) (A) (A) (A)
                 (A) (A) (A) (A) (A) (A) (A) (A) (A) (A) (A) (A)
                 (A) (A) (A) (A) (A) (A) (A) (A) (A) (A) (A) (A)
                 (A) (A) (A) (A) (A) (A) (A) (A) (A) (A) (A) (A)
                 (A) (A) (A) (A) (A) (A) (A) (A) (A) (A) (A) (A)
                 (A) (A) (A) (A) (A) (A) (A) (A) (A) (A) (A) (A)
                 (A) (A) (A) (A) (A) (A) (A) (A) (A) (A) (A) (A)
                 (A) (A) (A) (A) (A) (A) (A) (A) (A) (A) (A)
       Virtual   (A) (A) (A) (A) (A) (A) (A) (A) (A) (A) (A) (A)
                 (A) (A) (A) (A) (A) (A) (A) (A) (A) (A) (A) (A)
                 (A) (A) (A) (A) (A) (A) (A) (A) (A) (A) (A) (A)
                 (A) (A) (A) (A) (A) (A) (A) (A) (A) (A) (A) (A)
                 (A) (A) (A) (A) (A) (A) (A) (A) (A) (A) (A) (A)
                 (A) (A) (A) (A) (A) (A) (A) (A) (A) (A) (A) (A)
                 (A) (A) (A) (A) (A) (A) (A) (A) (A) (A) (A) (A)
                 (A) (A) (A) (A) (A) (A) (A) (A) (A) (A) (A) (A)
                 (A) (A) (A) (A) (A) (A) (A) (A) (A) (A) (A) (A)
                 (A) (A) (A) (A) (A) (A) (A) (A) (A) (A) (A) (A)
                 (A) (A) (A) (A) (A) (A) (A) (A) (A) (A) (A) (A)
                 (A) (A) (A) (A) (A) (A) (A) (A) (A) (A) (A) (A)
                 (A) (A) (A) (A) (A) (A) (A) (A) (A) (A) (A) (A)
                 (A) (A) (A) (A) (A) (A) (A) (A) (A) (A) (A) (A)
                 (A) (A) (A) (A) (A) (A) (A) (A) (A) (A) (A) (A)
                 (A) (A) (A) (A) (A) (A) (A) (A) (A) (A) (A) (A)
                 (A) (A) (A) (A) (A) (A) (A) (A) (A) (A) (A) (A)
                 (A) (A) (A) (A) (A) (A) (A) (A) (A) (A) (A) (A)
                 (A) (A) (A) (A) (A) (A) (A) (A) (A) (A) (A) (A)
                 (A) (A) (A) (A) (A) (A) (A) (A) (A) (A) (A) (A)
                 (A) (A) (A) (A) (A) (A) (A) (A) (A) (A) (A) (A)
                 (A) (A) (A) (A) (A) (A) (A) (A) (A) (A) (A) (A)
                 (A) (A) (A) (A) (A) (A) (A) (A) (A) (A) (A) (A)
                 (A) (A) (A) (A) (A) (A) (A) (A) (A) (A) (A) (A)
                 (A) (A) (A) (A) (A) (A) (A) (A) (A) (A) (A) (A)
                 (A) (A) (A) (A) (A) (A) (A) (A) (A) (A) (A) (A)
                 (A) (A) (A) (A) (A) (A) (A) (A) (A) (A) (A) (A)
                 (A) (A) (A) (A) (A) (A) (A) (A) (A) (A) (A) (A)
                 (A) (A) (A) (A) (A) (A) (A) (A) (A) (A) (A) (A)
                 (A) (A) (A) (A) (A) (A) (A) (A) (A) (A) (A) (A)
                 (A) (A) (A) (A) (A) (A) (A) (A) (A) (A) (A) (A)
                 (A) (A) (A) (A) (A) (A) (A) (A) (A) (A) (A) (A)
                 (A) (A) (A) (A) (A) (A) (A) (A) (A) (A) (A) (A)
                 (A) (A) (A) (A) (A) (A) (A) (A) (A) (A) (A) (A)
                 (A) (A) (A) (A) (A) (A) (A) (A) (A) (A) (A) (A)
                 (A) (A) (A) (A) (A) (A) (A) (A) (A) (A) (A) (A)
                 (A) (A) (A) (A) (A) (A) (A) (A) (A) (A) (A) (A)
                 (A) (A) (A) (A) (A) (A) (A) (A) (A) (A) (A) (A)
                 (A) (A) (A) (A) (A) (A) (A) (A) (A) (A) (A) (A)
                 (A) (A) (A) (A) (A) (A) (A) (A) (A) (A) (A) (A)
                 (A) (A) (A) (A) (A) (A) (A) (A) (A) (A) (A) (A)
                 (A) (A) (A) (A) (A) (A) (A) (A) (A) (A) (A) (A)
                 (A) (A) (A) (A) (A) (A) (A) (A) (A) (A) (A) (A)
                 (A) (A) (A) (A) (A) (A) (A) (A) (A) (A) (A) (A)
                 (A) (A) (A) (A) (A) (A) (A) (A) (A) (A) (A) (A)
                 (A) (A) (A) (A) (A) (A) (A) (A) (A) (A) (A) (A)
                 (A) (A) (A) (A) (A) (A) (A) (A) (A) (A) (A) (A)
                 (A) (A) (A) (A) (A) (A) (A) (A) (A) (A) (A) (A)
                 (A) (A) (A) (A) (A) (A) (A) (A) (A) (A) (A) (A)
                 (A) (A) (A) (A) (A) (A) (A) (A) (A) (A) (A) (A)
                 (A) (A) (A) (A) (A) (A) (A) (A) (A) (A) (A) (A)
                 (A) (A) (A) (A) (A) (A) (A) (A) (A) (A) (A) (A)
                 (A) (A) (A) (A) (A) (A) (A) (A) (A) (A) (A) (A)
                 (A) (A) (A) (A) (A) (A) (A) (A) (A) (A) (A) (A)
                 (A) (A) (A) (A) (A) (A) (A) (A) (A) (A) (A) (A)
                 (A) (A) (A) (A) (A) (A) (A) (A) (A) (A) (A) (A)
                 (A) (A) (A) (A) (A) (A) (A) (A) (A) (A) (A) (A)
                 (A) (A) (A) (A) (A) (A) (A) (A) (A) (A) (A) (A)
                 (A) (A) (A) (A) (A) (A) (A) (A) (A) (A) (A) (A)
                 (A) (A) (A) (A) (A) (A) (A) (A) (A) (A) (A) (A)
                 (A) (A) (A) (A) (A) (A) (A) (A) (A) (A) (A) (A)
                 (A) (A) (A) (A) (A) (A) (A) (A) (A) (A) (A) (A)
                 (A) (A) (A) (A) (A) (A) (A) (A) (A) (A) (A) (A)
                 (A) (A) (A) (A) (A) (A) (A) (A) (A) (A) (A) (A)
                 (A) (A) (A) (A) (A) (A) (A) (A) (A) (A) (A) (A)
                 (A) (A) (A) (A) (A) (A) (A) (A) (A) (A) (A) (A)
                 (A) (A) (A) (A) (A) (A) (A) (A) (A) (A) (A) (A)
                 (A) (A) (A) (A) (A) (A) (A) (A) (A) (A) (A) (A)
                 (A) (A) (A) (A) (A) (A) (A) (A) (A) (A) (A) (A)
                 (A) (A) (A) (A) (A) (A) (A) (A) (A) (A) (A) (A)
                 (A) (A) (A) (A) (A) (A) (A) (A) (A) (A) (A) (A)
                 (A) (A) (A) (A) (A) (A) (A) (A) (A) (A) (A) (A)
                 (A) (A) (A) (A) (A) (A) (A) (A) (A) (A) (A) (A)
                 (A) (A) (A) (A) (A) (A) (A) (A) (A) (A) (A) (A)
                 (A) (A) (A) (A) (A) (A) (A) (A) (A) (A) (A) (A)
                 (A) (A) (A) (A) (A) (A) (A) (A) (A) (A) (A) (A)
                 (A) (A) (A) (A) (A) (A) (A) (A) (A) (A) (A) (A)
                 (A) (A) (A) (A) (A) (A) (A) (A) (A) (A) (A) (A)
                 (A) (A) (A) (A) (A) (A) (A) (A) (A) (A) (A) (A)
                 (A) (A) (A) (A) (A) (A) (A) (A) (A) (A) (A) (A)
                 (A) (A) (A) (A) (A) (A) (A) (A) (A) (A) (A) (A)
                 (A) (A) (A) (A) (A) (A) (A) (A) (A) (A) (A) (A)
                 (A) (A) (A) (A) (A) (A) (A) (A) (A) (A) (A) (A)
                 (A) (A) (A) (A) (A) (A) (A) (A) (A) (A) (A) (A)
                 (A) (A) (A) (A) (A) (A) (A) (A) (A) (A) (A) (A)
                 (A) (A) (A) (A) (A) (A) (A) (A) (A) (A) (A) (A)
                 (A) (A) (A) (A) (A) (A) (A) (A) (A) (A) (A) (A)
                 (A) (A) (A) (A) (A) (A) (A) (A) (A) (A) (A) (A)
                 (A) (A) (A) (A) (A) (A) (A) (A) (A) (A) (A) (A)
                 (A) (A) (A) (A) (A) (A) (A) (A) (A) (A) (A) (A)
                 (A) (A) (A) (A) (A) (A) (A) (A) (A) (A) (A) (A)
                 (A) (A) (A) (A) (A) (A) (A) (A) (A) (A) (A) (A)
                 (A) (A) (A) (A) (A) (A) (A) (A) (A) (A) (A) (A)
                 (A) (A) (A) (A) (A) (A) (A) (A) (A) (A) (A) (A)
                 (A) (A) (A) (A) (A) (A) (A) (A) (A) (A) (A) (A)
                 (A) (A) (A) (A) (A) (A) (A) (A) (A) (A) (A) (A)
                 (A) (A) (A) (A) (A) (A) (A) (A) (A) (A) (A) (A)
                 (A) (A) (A) (A) (A) (A) (A) (A) (A) (A) (A) (A)
                 (A) (A) (A) (A) (A) (A) (A) (A) (A) (A) (A) (A)
                 (A) (A) (A) (A) (A) (A) (A) (A) (A) (A) (A) (A)
                 (A) (A) (A) (A) (A) (A) (A) (A) (A) (A) (A) (A)
                 (A) (A) (A) (A) (A) (A) (A) (A) (A) (A) (A) (A)
                 (A) (A) (A) (A) (A) (A) (A) (A) (A) (A) (A) (A)
                 (A) (A) (A) (A) (A) (A) (A) (A) (A) (A) (A) (A)
                 (A) (A) (A) (A) (A) (A) (A) (A) (A) (A) (A) (A)
                 (A) (A) (A) (A) (A) (A) (A) (A) (A) (A) (A) (A)
                 (A) (A) (A) (A) (A) (A) (A) (A) (A) (A) (A) (A)
                 (A) (A) (A) (A) (A) (A) (A) (A) (A) (A) (A) (A)
                 (A) (A) (A) (A) (A) (A) (A) (A) (A) (A) (A) (A)
                 (A) (A) (A) (A) (A) (A) (A) (A) (A) (A) (A)
 Beta  Orbitals:
       Occupied  (A) (A) (A) (A) (A) (A) (A) (A) (A) (A) (A) (A)
                 (A) (A) (A) (A) (A) (A) (A) (A) (A) (A) (A) (A)
                 (A) (A) (A) (A) (A) (A) (A) (A) (A) (A) (A) (A)
                 (A) (A) (A) (A) (A) (A) (A) (A) (A) (A) (A) (A)
                 (A) (A) (A) (A) (A) (A) (A) (A) (A) (A) (A) (A)
                 (A) (A) (A) (A) (A) (A) (A) (A) (A) (A) (A) (A)
                 (A) (A) (A) (A) (A) (A) (A) (A) (A) (A) (A) (A)
                 (A) (A) (A) (A) (A) (A) (A) (A) (A) (A) (A) (A)
                 (A) (A) (A) (A) (A) (A) (A) (A) (A) (A) (A) (A)
                 (A) (A) (A) (A) (A) (A) (A) (A) (A) (A) (A) (A)
                 (A) (A) (A) (A) (A) (A) (A) (A) (A) (A) (A) (A)
                 (A) (A) (A) (A) (A) (A) (A) (A) (A) (A) (A) (A)
                 (A) (A) (A) (A) (A) (A) (A) (A) (A) (A) (A) (A)
                 (A) (A) (A) (A) (A) (A) (A) (A) (A) (A) (A) (A)
                 (A) (A) (A) (A) (A) (A) (A) (A) (A) (A) (A) (A)
                 (A) (A) (A) (A) (A) (A) (A) (A) (A) (A) (A) (A)
                 (A) (A) (A) (A) (A) (A) (A) (A) (A) (A) (A) (A)
                 (A) (A) (A) (A) (A) (A) (A) (A) (A) (A) (A) (A)
                 (A) (A) (A) (A) (A) (A) (A) (A) (A) (A) (A) (A)
                 (A) (A) (A) (A) (A) (A) (A) (A) (A) (A) (A) (A)
                 (A) (A) (A) (A) (A) (A) (A) (A) (A) (A) (A) (A)
                 (A) (A) (A) (A) (A) (A) (A) (A) (A) (A) (A) (A)
                 (A) (A) (A) (A) (A) (A) (A) (A) (A) (A) (A) (A)
                 (A) (A) (A) (A) (A) (A) (A) (A) (A) (A) (A) (A)
                 (A) (A) (A) (A) (A) (A) (A) (A) (A) (A) (A) (A)
                 (A) (A) (A) (A) (A) (A) (A) (A) (A) (A) (A) (A)
                 (A) (A) (A) (A) (A) (A) (A) (A) (A) (A)
       Virtual   (A) (A) (A) (A) (A) (A) (A) (A) (A) (A) (A) (A)
                 (A) (A) (A) (A) (A) (A) (A) (A) (A) (A) (A) (A)
                 (A) (A) (A) (A) (A) (A) (A) (A) (A) (A) (A) (A)
                 (A) (A) (A) (A) (A) (A) (A) (A) (A) (A) (A) (A)
                 (A) (A) (A) (A) (A) (A) (A) (A) (A) (A) (A) (A)
                 (A) (A) (A) (A) (A) (A) (A) (A) (A) (A) (A) (A)
                 (A) (A) (A) (A) (A) (A) (A) (A) (A) (A) (A) (A)
                 (A) (A) (A) (A) (A) (A) (A) (A) (A) (A) (A) (A)
                 (A) (A) (A) (A) (A) (A) (A) (A) (A) (A) (A) (A)
                 (A) (A) (A) (A) (A) (A) (A) (A) (A) (A) (A) (A)
                 (A) (A) (A) (A) (A) (A) (A) (A) (A) (A) (A) (A)
                 (A) (A) (A) (A) (A) (A) (A) (A) (A) (A) (A) (A)
                 (A) (A) (A) (A) (A) (A) (A) (A) (A) (A) (A) (A)
                 (A) (A) (A) (A) (A) (A) (A) (A) (A) (A) (A) (A)
                 (A) (A) (A) (A) (A) (A) (A) (A) (A) (A) (A) (A)
                 (A) (A) (A) (A) (A) (A) (A) (A) (A) (A) (A) (A)
                 (A) (A) (A) (A) (A) (A) (A) (A) (A) (A) (A) (A)
                 (A) (A) (A) (A) (A) (A) (A) (A) (A) (A) (A) (A)
                 (A) (A) (A) (A) (A) (A) (A) (A) (A) (A) (A) (A)
                 (A) (A) (A) (A) (A) (A) (A) (A) (A) (A) (A) (A)
                 (A) (A) (A) (A) (A) (A) (A) (A) (A) (A) (A) (A)
                 (A) (A) (A) (A) (A) (A) (A) (A) (A) (A) (A) (A)
                 (A) (A) (A) (A) (A) (A) (A) (A) (A) (A) (A) (A)
                 (A) (A) (A) (A) (A) (A) (A) (A) (A) (A) (A) (A)
                 (A) (A) (A) (A) (A) (A) (A) (A) (A) (A) (A) (A)
                 (A) (A) (A) (A) (A) (A) (A) (A) (A) (A) (A) (A)
                 (A) (A) (A) (A) (A) (A) (A) (A) (A) (A) (A) (A)
                 (A) (A) (A) (A) (A) (A) (A) (A) (A) (A) (A) (A)
                 (A) (A) (A) (A) (A) (A) (A) (A) (A) (A) (A) (A)
                 (A) (A) (A) (A) (A) (A) (A) (A) (A) (A) (A) (A)
                 (A) (A) (A) (A) (A) (A) (A) (A) (A) (A) (A) (A)
                 (A) (A) (A) (A) (A) (A) (A) (A) (A) (A) (A) (A)
                 (A) (A) (A) (A) (A) (A) (A) (A) (A) (A) (A) (A)
                 (A) (A) (A) (A) (A) (A) (A) (A) (A) (A) (A) (A)
                 (A) (A) (A) (A) (A) (A) (A) (A) (A) (A) (A) (A)
                 (A) (A) (A) (A) (A) (A) (A) (A) (A) (A) (A) (A)
                 (A) (A) (A) (A) (A) (A) (A) (A) (A) (A) (A) (A)
                 (A) (A) (A) (A) (A) (A) (A) (A) (A) (A) (A) (A)
                 (A) (A) (A) (A) (A) (A) (A) (A) (A) (A) (A) (A)
                 (A) (A) (A) (A) (A) (A) (A) (A) (A) (A) (A) (A)
                 (A) (A) (A) (A) (A) (A) (A) (A) (A) (A) (A) (A)
                 (A) (A) (A) (A) (A) (A) (A) (A) (A) (A) (A) (A)
                 (A) (A) (A) (A) (A) (A) (A) (A) (A) (A) (A) (A)
                 (A) (A) (A) (A) (A) (A) (A) (A) (A) (A) (A) (A)
                 (A) (A) (A) (A) (A) (A) (A) (A) (A) (A) (A) (A)
                 (A) (A) (A) (A) (A) (A) (A) (A) (A) (A) (A) (A)
                 (A) (A) (A) (A) (A) (A) (A) (A) (A) (A) (A) (A)
                 (A) (A) (A) (A) (A) (A) (A) (A) (A) (A) (A) (A)
                 (A) (A) (A) (A) (A) (A) (A) (A) (A) (A) (A) (A)
                 (A) (A) (A) (A) (A) (A) (A) (A) (A) (A) (A) (A)
                 (A) (A) (A) (A) (A) (A) (A) (A) (A) (A) (A) (A)
                 (A) (A) (A) (A) (A) (A) (A) (A) (A) (A) (A) (A)
                 (A) (A) (A) (A) (A) (A) (A) (A) (A) (A) (A) (A)
                 (A) (A) (A) (A) (A) (A) (A) (A) (A) (A) (A) (A)
                 (A) (A) (A) (A) (A) (A) (A) (A) (A) (A) (A) (A)
                 (A) (A) (A) (A) (A) (A) (A) (A) (A) (A) (A) (A)
                 (A) (A) (A) (A) (A) (A) (A) (A) (A) (A) (A) (A)
                 (A) (A) (A) (A) (A) (A) (A) (A) (A) (A) (A) (A)
                 (A) (A) (A) (A) (A) (A) (A) (A) (A) (A) (A) (A)
                 (A) (A) (A) (A) (A) (A) (A) (A) (A) (A) (A) (A)
                 (A) (A) (A) (A) (A) (A) (A) (A) (A) (A) (A) (A)
                 (A) (A) (A) (A) (A) (A) (A) (A) (A) (A) (A) (A)
                 (A) (A) (A) (A) (A) (A) (A) (A) (A) (A) (A) (A)
                 (A) (A) (A) (A) (A) (A) (A) (A) (A) (A) (A) (A)
                 (A) (A) (A) (A) (A) (A) (A) (A) (A) (A) (A) (A)
                 (A) (A) (A) (A) (A) (A) (A) (A) (A) (A) (A) (A)
                 (A) (A) (A) (A) (A) (A) (A) (A) (A) (A) (A) (A)
                 (A) (A) (A) (A) (A) (A) (A) (A) (A) (A) (A) (A)
                 (A) (A) (A) (A) (A) (A) (A) (A) (A) (A) (A) (A)
                 (A) (A) (A) (A) (A) (A) (A) (A) (A) (A) (A) (A)
                 (A) (A) (A) (A) (A) (A) (A) (A) (A) (A) (A) (A)
                 (A) (A) (A) (A) (A) (A) (A) (A) (A) (A) (A) (A)
                 (A) (A) (A) (A) (A) (A) (A) (A) (A) (A) (A) (A)
                 (A) (A) (A) (A) (A) (A) (A) (A) (A) (A) (A) (A)
                 (A) (A) (A) (A) (A) (A) (A) (A) (A) (A) (A) (A)
                 (A) (A) (A) (A) (A) (A) (A) (A) (A) (A) (A) (A)
                 (A) (A) (A) (A) (A) (A) (A) (A) (A) (A) (A) (A)
                 (A) (A) (A) (A) (A) (A) (A) (A) (A) (A) (A) (A)
                 (A) (A) (A) (A) (A) (A) (A) (A) (A) (A) (A) (A)
                 (A) (A) (A) (A) (A) (A) (A) (A) (A) (A) (A) (A)
                 (A) (A) (A) (A) (A) (A) (A) (A) (A) (A) (A) (A)
                 (A) (A) (A) (A) (A) (A) (A) (A) (A) (A) (A) (A)
                 (A) (A) (A) (A) (A) (A) (A) (A) (A) (A) (A) (A)
                 (A) (A) (A) (A) (A) (A) (A) (A) (A) (A) (A) (A)
                 (A) (A) (A) (A) (A) (A) (A) (A) (A) (A) (A) (A)
                 (A) (A) (A) (A) (A) (A) (A) (A) (A) (A) (A) (A)
                 (A) (A) (A) (A) (A) (A) (A) (A) (A) (A) (A) (A)
                 (A) (A) (A) (A) (A) (A) (A) (A) (A) (A) (A) (A)
                 (A) (A) (A) (A) (A) (A) (A) (A) (A) (A) (A) (A)
                 (A) (A) (A) (A) (A) (A) (A) (A) (A) (A) (A) (A)
                 (A) (A) (A) (A) (A) (A) (A) (A) (A) (A) (A) (A)
                 (A) (A) (A) (A) (A) (A) (A) (A) (A) (A) (A) (A)
                 (A) (A) (A) (A) (A) (A) (A) (A) (A) (A) (A) (A)
                 (A) (A) (A) (A) (A) (A) (A) (A) (A) (A) (A) (A)
                 (A) (A) (A) (A) (A) (A) (A) (A) (A) (A) (A) (A)
                 (A) (A) (A) (A) (A) (A) (A) (A) (A) (A) (A) (A)
                 (A) (A) (A) (A) (A) (A) (A) (A) (A) (A) (A) (A)
                 (A) (A) (A) (A) (A) (A) (A) (A) (A) (A) (A) (A)
                 (A) (A) (A) (A) (A) (A) (A) (A) (A) (A) (A) (A)
                 (A) (A) (A) (A) (A) (A) (A) (A) (A) (A) (A) (A)
                 (A) (A) (A) (A) (A) (A) (A) (A) (A) (A) (A) (A)
                 (A) (A) (A) (A) (A) (A) (A) (A) (A) (A) (A) (A)
                 (A) (A) (A) (A) (A) (A) (A) (A) (A) (A) (A) (A)
                 (A) (A) (A) (A) (A) (A) (A) (A) (A) (A) (A) (A)
                 (A) (A) (A) (A) (A) (A) (A) (A) (A) (A) (A) (A)
                 (A) (A) (A) (A) (A) (A) (A) (A) (A) (A) (A) (A)
                 (A) (A) (A) (A) (A) (A) (A) (A) (A) (A) (A) (A)
                 (A) (A) (A) (A) (A) (A) (A) (A) (A) (A) (A) (A)
                 (A) (A) (A) (A) (A) (A) (A) (A) (A) (A) (A) (A)
                 (A) (A) (A) (A) (A) (A) (A) (A) (A) (A) (A) (A)
 The electronic state of the initial guess is 2-A.
 Initial guess <Sx>= 0.0000 <Sy>= 0.0000 <Sz>= 0.5000 <S**2>= 0.7500 S= 0.5000
 Leave Link  401 at Tue Jan 27 16:04:20 2015, MaxMem= 2147483648 cpu:     610.8
 (Enter /opt/g09/l502.exe)
 UHF open shell SCF:
 Requested convergence on RMS density matrix=1.00D-08 within 128 cycles.
 Requested convergence on MAX density matrix=1.00D-06.
 Requested convergence on             energy=1.00D-06.
 No special actions if energy rises.
 Using DIIS extrapolation, IDIIS=  1040.
 Integral symmetry usage will be decided dynamically.
      1419442 words used for storage of precomputed grid.
 IEnd=    10523039 IEndB=    10523039 NGot=  2147483648 MDV=  2139989210
 LenX=  2139989210 LenY=  2136977250
 Fock matrices will be formed incrementally for  20 cycles.
 Integral accuracy reduced to 1.0D-05 until final iterations.

 Cycle   1  Pass 0  IDiag  1:
 FoFCou: FMM=T IPFlag=           0 FMFlag=      100000 FMFlg1=        2001
         NFxFlg=           0 DoJE=F BraDBF=F KetDBF=F FulRan=T
         Omega=  0.000000  0.000000  1.000000  0.000000  0.000000 ICntrl=       0 IOpCl=  1
         NMat0=    1 NMatS0=    1 NMatT0=    0 NMatD0=    1 NMtDS0=    0 NMtDT0=    0
         I1Cent=           0 NGrid=           0.
 Symmetry not used in FoFCou.
 FMM levels:  10  Number of levels for PrismC:   9
 E= -3946.46442768566    
 DIIS: error= 1.69D-02 at cycle   1 NSaved=   1.
 NSaved= 1 IEnMin= 1 EnMin= -3946.46442768566     IErMin= 1 ErrMin= 1.69D-02
 ErrMax= 1.69D-02 EMaxC= 1.00D-01 BMatC= 6.35D+00 BMatP= 6.35D+00
 IDIUse=3 WtCom= 8.31D-01 WtEn= 1.69D-01
 Coeff-Com:  0.100D+01
 Coeff-En:   0.100D+01
 Coeff:      0.100D+01
 Gap=     0.205 Goal=   None    Shift=    0.000
 Gap=    -0.040 Goal=   None    Shift=    0.000
 GapD=   -0.040 DampG=0.250 DampE=0.500 DampFc=0.2500 IDamp=-1.
 Damping current iteration by 2.50D-01
 RMSDP=2.31D-03 MaxDP=1.64D-01              OVMax= 8.13D-01

 Cycle   2  Pass 0  IDiag  1:
 RMSU=  3.83D-04    CP:  9.79D-01
 E= -3947.10266383768     Delta-E=       -0.638236152023 Rises=F Damp=T
 DIIS: error= 9.44D-03 at cycle   2 NSaved=   2.
 NSaved= 2 IEnMin= 2 EnMin= -3947.10266383768     IErMin= 2 ErrMin= 9.44D-03
 ErrMax= 9.44D-03 EMaxC= 1.00D-01 BMatC= 1.66D+00 BMatP= 6.35D+00
 IDIUse=3 WtCom= 9.06D-01 WtEn= 9.44D-02
 Coeff-Com: -0.745D+00 0.174D+01
 Coeff-En:   0.000D+00 0.100D+01
 Coeff:     -0.674D+00 0.167D+01
 Gap=     0.166 Goal=   None    Shift=    0.000
 Gap=     0.027 Goal=   None    Shift=    0.000
 RMSDP=1.19D-03 MaxDP=1.30D-01 DE=-6.38D-01 OVMax= 8.94D-01

 Cycle   3  Pass 0  IDiag  1:
 RMSU=  6.26D-04    CP:  9.32D-01  2.18D+00
 E= -3947.88624935469     Delta-E=       -0.783585517009 Rises=F Damp=F
 DIIS: error= 9.02D-03 at cycle   3 NSaved=   3.
 NSaved= 3 IEnMin= 3 EnMin= -3947.88624935469     IErMin= 3 ErrMin= 9.02D-03
 ErrMax= 9.02D-03 EMaxC= 1.00D-01 BMatC= 1.39D+00 BMatP= 1.66D+00
 IDIUse=3 WtCom= 9.10D-01 WtEn= 9.02D-02
 Coeff-Com: -0.555D+00 0.115D+01 0.402D+00
 Coeff-En:   0.000D+00 0.000D+00 0.100D+01
 Coeff:     -0.505D+00 0.105D+01 0.456D+00
 Gap=     0.186 Goal=   None    Shift=    0.000
 Gap=     0.032 Goal=   None    Shift=    0.000
 RMSDP=7.73D-04 MaxDP=1.09D-01 DE=-7.84D-01 OVMax= 9.11D-01

 Cycle   4  Pass 0  IDiag  1:
 RMSU=  2.62D-04    CP:  9.35D-01  2.45D+00  3.51D-01
 E= -3948.15482337928     Delta-E=       -0.268574024591 Rises=F Damp=F
 DIIS: error= 5.75D-03 at cycle   4 NSaved=   4.
 NSaved= 4 IEnMin= 4 EnMin= -3948.15482337928     IErMin= 4 ErrMin= 5.75D-03
 ErrMax= 5.75D-03 EMaxC= 1.00D-01 BMatC= 4.35D-01 BMatP= 1.39D+00
 IDIUse=3 WtCom= 9.43D-01 WtEn= 5.75D-02
 Coeff-Com: -0.239D+00 0.498D+00 0.347D+00 0.395D+00
 Coeff-En:   0.000D+00 0.000D+00 0.301D+00 0.699D+00
 Coeff:     -0.226D+00 0.469D+00 0.344D+00 0.412D+00
 Gap=     0.159 Goal=   None    Shift=    0.000
 Gap=    -0.015 Goal=   None    Shift=    0.000
 RMSDP=5.35D-04 MaxDP=6.25D-02 DE=-2.69D-01 OVMax= 9.68D-01

 Cycle   5  Pass 0  IDiag  1:
 RMSU=  1.56D-04    CP:  9.36D-01  2.21D+00  6.32D-01  2.40D-01
 E= -3948.24418112548     Delta-E=       -0.089357746197 Rises=F Damp=F
 DIIS: error= 2.52D-03 at cycle   5 NSaved=   5.
 NSaved= 5 IEnMin= 5 EnMin= -3948.24418112548     IErMin= 5 ErrMin= 2.52D-03
 ErrMax= 2.52D-03 EMaxC= 1.00D-01 BMatC= 1.19D-01 BMatP= 4.35D-01
 IDIUse=3 WtCom= 9.75D-01 WtEn= 2.52D-02
 Coeff-Com: -0.855D-01 0.178D+00 0.213D+00 0.357D+00 0.337D+00
 Coeff-En:   0.000D+00 0.000D+00 0.000D+00 0.272D+00 0.728D+00
 Coeff:     -0.833D-01 0.174D+00 0.208D+00 0.355D+00 0.347D+00
 Gap=     0.152 Goal=   None    Shift=    0.000
 Gap=    -0.002 Goal=   None    Shift=    0.000
 RMSDP=4.43D-04 MaxDP=5.07D-02 DE=-8.94D-02 OVMax= 8.53D-01

 Cycle   6  Pass 0  IDiag  1:
 RMSU=  7.15D-05    CP:  9.35D-01  2.34D+00  5.13D-01  7.84D-01 -3.72D-02
 E= -3948.26842084557     Delta-E=       -0.024239720089 Rises=F Damp=F
 DIIS: error= 1.53D-03 at cycle   6 NSaved=   6.
 NSaved= 6 IEnMin= 6 EnMin= -3948.26842084557     IErMin= 6 ErrMin= 1.53D-03
 ErrMax= 1.53D-03 EMaxC= 1.00D-01 BMatC= 4.11D-02 BMatP= 1.19D-01
 IDIUse=3 WtCom= 9.85D-01 WtEn= 1.53D-02
 Coeff-Com: -0.110D-01 0.245D-01 0.798D-01 0.146D+00 0.342D+00 0.419D+00
 Coeff-En:   0.000D+00 0.000D+00 0.000D+00 0.000D+00 0.344D+00 0.656D+00
 Coeff:     -0.109D-01 0.241D-01 0.785D-01 0.144D+00 0.342D+00 0.422D+00
 Gap=     0.145 Goal=   None    Shift=    0.000
 Gap=     0.004 Goal=   None    Shift=    0.000
 RMSDP=2.75D-04 MaxDP=2.94D-02 DE=-2.42D-02 OVMax= 5.38D-01

 Cycle   7  Pass 0  IDiag  1:
 RMSU=  5.86D-05    CP:  9.36D-01  2.25D+00  5.99D-01  4.52D-01  5.79D-01
                    CP:  7.81D-01
 E= -3948.28013754274     Delta-E=       -0.011716697176 Rises=F Damp=F
 DIIS: error= 8.57D-04 at cycle   7 NSaved=   7.
 NSaved= 7 IEnMin= 7 EnMin= -3948.28013754274     IErMin= 7 ErrMin= 8.57D-04
 ErrMax= 8.57D-04 EMaxC= 1.00D-01 BMatC= 1.01D-02 BMatP= 4.11D-02
 IDIUse=3 WtCom= 9.91D-01 WtEn= 8.57D-03
 Coeff-Com:  0.436D-02-0.926D-02 0.814D-02 0.176D-01 0.161D+00 0.395D+00
 Coeff-Com:  0.423D+00
 Coeff-En:   0.000D+00 0.000D+00 0.000D+00 0.000D+00 0.000D+00 0.263D+00
 Coeff-En:   0.737D+00
 Coeff:      0.433D-02-0.918D-02 0.807D-02 0.174D-01 0.160D+00 0.394D+00
 Coeff:      0.426D+00
 Gap=     0.143 Goal=   None    Shift=    0.000
 Gap=     0.012 Goal=   None    Shift=    0.000
 RMSDP=8.64D-05 MaxDP=8.83D-03 DE=-1.17D-02 OVMax= 1.57D-01

 Cycle   8  Pass 0  IDiag  1:
 RMSU=  1.70D-05    CP:  9.35D-01  2.28D+00  5.76D-01  5.50D-01  4.36D-01
                    CP:  1.00D+00  7.65D-01
 E= -3948.28360615173     Delta-E=       -0.003468608986 Rises=F Damp=F
 DIIS: error= 1.97D-04 at cycle   8 NSaved=   8.
 NSaved= 8 IEnMin= 8 EnMin= -3948.28360615173     IErMin= 8 ErrMin= 1.97D-04
 ErrMax= 1.97D-04 EMaxC= 1.00D-01 BMatC= 8.27D-04 BMatP= 1.01D-02
 IDIUse=3 WtCom= 9.98D-01 WtEn= 1.97D-03
 Coeff-Com:  0.318D-02-0.700D-02-0.231D-02-0.390D-02 0.629D-01 0.229D+00
 Coeff-Com:  0.282D+00 0.436D+00
 Coeff-En:   0.000D+00 0.000D+00 0.000D+00 0.000D+00 0.000D+00 0.000D+00
 Coeff-En:   0.000D+00 0.100D+01
 Coeff:      0.317D-02-0.699D-02-0.230D-02-0.389D-02 0.628D-01 0.229D+00
 Coeff:      0.281D+00 0.437D+00
 Gap=     0.139 Goal=   None    Shift=    0.000
 Gap=     0.015 Goal=   None    Shift=    0.000
 RMSDP=1.63D-05 MaxDP=2.40D-03 DE=-3.47D-03 OVMax= 2.10D-02

 Cycle   9  Pass 0  IDiag  1:
 RMSU=  6.56D-06    CP:  9.35D-01  2.28D+00  5.75D-01  5.52D-01  4.30D-01
                    CP:  1.00D+00  7.86D-01  6.30D-01
 E= -3948.28378851684     Delta-E=       -0.000182365115 Rises=F Damp=F
 DIIS: error= 1.15D-04 at cycle   9 NSaved=   9.
 NSaved= 9 IEnMin= 9 EnMin= -3948.28378851684     IErMin= 9 ErrMin= 1.15D-04
 ErrMax= 1.15D-04 EMaxC= 1.00D-01 BMatC= 1.86D-04 BMatP= 8.27D-04
 IDIUse=3 WtCom= 9.99D-01 WtEn= 1.15D-03
 Coeff-Com:  0.111D-02-0.248D-02-0.250D-02-0.582D-02 0.129D-01 0.978D-01
 Coeff-Com:  0.119D+00 0.322D+00 0.458D+00
 Coeff-En:   0.000D+00 0.000D+00 0.000D+00 0.000D+00 0.000D+00 0.000D+00
 Coeff-En:   0.000D+00 0.183D+00 0.817D+00
 Coeff:      0.111D-02-0.247D-02-0.250D-02-0.582D-02 0.129D-01 0.977D-01
 Coeff:      0.119D+00 0.322D+00 0.458D+00
 Gap=     0.139 Goal=   None    Shift=    0.000
 Gap=     0.016 Goal=   None    Shift=    0.000
 RMSDP=8.63D-06 MaxDP=1.14D-03 DE=-1.82D-04 OVMax= 1.09D-02

 Cycle  10  Pass 0  IDiag  1:
 RMSU=  3.59D-06    CP:  9.35D-01  2.28D+00  5.74D-01  5.55D-01  4.23D-01
                    CP:  1.01D+00  7.79D-01  7.35D-01  5.95D-01
 E= -3948.28382377574     Delta-E=       -0.000035258894 Rises=F Damp=F
 DIIS: error= 6.83D-05 at cycle  10 NSaved=  10.
 NSaved=10 IEnMin=10 EnMin= -3948.28382377574     IErMin=10 ErrMin= 6.83D-05
 ErrMax= 6.83D-05 EMaxC= 1.00D-01 BMatC= 5.59D-05 BMatP= 1.86D-04
 IDIUse=1 WtCom= 1.00D+00 WtEn= 0.00D+00
 Coeff-Com: -0.714D-04 0.169D-03-0.735D-03-0.298D-02-0.608D-02 0.229D-01
 Coeff-Com:  0.220D-01 0.160D+00 0.372D+00 0.432D+00
 Coeff:     -0.714D-04 0.169D-03-0.735D-03-0.298D-02-0.608D-02 0.229D-01
 Coeff:      0.220D-01 0.160D+00 0.372D+00 0.432D+00
 Gap=     0.138 Goal=   None    Shift=    0.000
 Gap=     0.017 Goal=   None    Shift=    0.000
 RMSDP=5.09D-06 MaxDP=6.32D-04 DE=-3.53D-05 OVMax= 5.98D-03

 Initial convergence to 1.0D-05 achieved.  Increase integral accuracy.
 Cycle  11  Pass 1  IDiag  1:
 E= -3948.28335208590     Delta-E=        0.000471689840 Rises=F Damp=F
 DIIS: error= 3.21D-04 at cycle   1 NSaved=   1.
 NSaved= 1 IEnMin= 1 EnMin= -3948.28335208590     IErMin= 1 ErrMin= 3.21D-04
 ErrMax= 3.21D-04 EMaxC= 1.00D-01 BMatC= 6.45D-04 BMatP= 6.45D-04
 IDIUse=3 WtCom= 9.97D-01 WtEn= 3.21D-03
 Coeff-Com:  0.100D+01
 Coeff-En:   0.100D+01
 Coeff:      0.100D+01
 Gap=     0.138 Goal=   None    Shift=    0.000
 Gap=     0.017 Goal=   None    Shift=    0.000
 RMSDP=5.09D-06 MaxDP=6.32D-04 DE= 4.72D-04 OVMax= 5.59D-03

 Cycle  12  Pass 1  IDiag  1:
 RMSU=  1.50D-04    CP:  9.98D-01
 E= -3948.28347947377     Delta-E=       -0.000127387870 Rises=F Damp=F
 DIIS: error= 7.13D-05 at cycle   2 NSaved=   2.
 NSaved= 2 IEnMin= 2 EnMin= -3948.28347947377     IErMin= 2 ErrMin= 7.13D-05
 ErrMax= 7.13D-05 EMaxC= 1.00D-01 BMatC= 6.73D-05 BMatP= 6.45D-04
 IDIUse=1 WtCom= 1.00D+00 WtEn= 0.00D+00
 Coeff-Com:  0.112D+00 0.888D+00
 Coeff:      0.112D+00 0.888D+00
 Gap=     0.139 Goal=   None    Shift=    0.000
 Gap=     0.017 Goal=   None    Shift=    0.000
 RMSDP=1.55D-05 MaxDP=2.05D-03 DE=-1.27D-04 OVMax= 1.88D-02

 Cycle  13  Pass 1  IDiag  1:
 RMSU=  6.95D-06    CP:  9.98D-01  1.01D+00
 E= -3948.28333139794     Delta-E=        0.000148075822 Rises=F Damp=F
 DIIS: error= 2.00D-04 at cycle   3 NSaved=   3.
 NSaved= 3 IEnMin= 2 EnMin= -3948.28347947377     IErMin= 2 ErrMin= 7.13D-05
 ErrMax= 2.00D-04 EMaxC= 1.00D-01 BMatC= 5.53D-04 BMatP= 6.73D-05
 IDIUse=3 WtCom= 4.14D-01 WtEn= 5.86D-01
 Coeff-Com: -0.293D-02 0.745D+00 0.258D+00
 Coeff-En:   0.000D+00 0.814D+00 0.186D+00
 Coeff:     -0.121D-02 0.785D+00 0.216D+00
 Gap=     0.138 Goal=   None    Shift=    0.000
 Gap=     0.017 Goal=   None    Shift=    0.000
 RMSDP=9.95D-06 MaxDP=1.37D-03 DE= 1.48D-04 OVMax= 1.17D-02

 Cycle  14  Pass 1  IDiag  1:
 RMSU=  9.87D-07    CP:  9.98D-01  1.01D+00  3.69D-01
 E= -3948.28349413253     Delta-E=       -0.000162734588 Rises=F Damp=F
 DIIS: error= 3.93D-05 at cycle   4 NSaved=   4.
 NSaved= 4 IEnMin= 4 EnMin= -3948.28349413253     IErMin= 4 ErrMin= 3.93D-05
 ErrMax= 3.93D-05 EMaxC= 1.00D-01 BMatC= 2.24D-05 BMatP= 6.73D-05
 IDIUse=1 WtCom= 1.00D+00 WtEn= 0.00D+00
 Coeff-Com: -0.464D-02 0.541D+00 0.129D+00 0.335D+00
 Coeff:     -0.464D-02 0.541D+00 0.129D+00 0.335D+00
 Gap=     0.138 Goal=   None    Shift=    0.000
 Gap=     0.017 Goal=   None    Shift=    0.000
 RMSDP=2.29D-06 MaxDP=2.93D-04 DE=-1.63D-04 OVMax= 2.35D-03

 Cycle  15  Pass 1  IDiag  1:
 RMSU=  6.30D-07    CP:  9.98D-01  1.01D+00  2.83D-01  1.69D-01
 E= -3948.28350044868     Delta-E=       -0.000006316150 Rises=F Damp=F
 DIIS: error= 9.23D-06 at cycle   5 NSaved=   5.
 NSaved= 5 IEnMin= 5 EnMin= -3948.28350044868     IErMin= 5 ErrMin= 9.23D-06
 ErrMax= 9.23D-06 EMaxC= 1.00D-01 BMatC= 1.16D-06 BMatP= 2.24D-05
 IDIUse=1 WtCom= 1.00D+00 WtEn= 0.00D+00
 Coeff-Com: -0.338D-02 0.349D+00 0.707D-01 0.273D+00 0.311D+00
 Coeff:     -0.338D-02 0.349D+00 0.707D-01 0.273D+00 0.311D+00
 Gap=     0.138 Goal=   None    Shift=    0.000
 Gap=     0.017 Goal=   None    Shift=    0.000
 RMSDP=9.82D-07 MaxDP=1.36D-04 DE=-6.32D-06 OVMax= 1.82D-03

 Cycle  16  Pass 1  IDiag  1:
 RMSU=  2.87D-07    CP:  9.98D-01  1.01D+00  2.70D-01  5.15D-01  5.10D-01
 E= -3948.28350081244     Delta-E=       -0.000000363758 Rises=F Damp=F
 DIIS: error= 4.87D-06 at cycle   6 NSaved=   6.
 NSaved= 6 IEnMin= 6 EnMin= -3948.28350081244     IErMin= 6 ErrMin= 4.87D-06
 ErrMax= 4.87D-06 EMaxC= 1.00D-01 BMatC= 2.47D-07 BMatP= 1.16D-06
 IDIUse=1 WtCom= 1.00D+00 WtEn= 0.00D+00
 Coeff-Com:  0.599D-04-0.415D-01-0.271D-01 0.330D-01 0.299D+00 0.737D+00
 Coeff:      0.599D-04-0.415D-01-0.271D-01 0.330D-01 0.299D+00 0.737D+00
 Gap=     0.138 Goal=   None    Shift=    0.000
 Gap=     0.017 Goal=   None    Shift=    0.000
 RMSDP=3.60D-07 MaxDP=4.84D-05 DE=-3.64D-07 OVMax= 2.99D-04

 Cycle  17  Pass 1  IDiag  1:
 RMSU=  1.52D-07    CP:  9.98D-01  1.01D+00  2.72D-01  5.29D-01  7.77D-01
                    CP:  1.00D+00
 E= -3948.28350094135     Delta-E=       -0.000000128908 Rises=F Damp=F
 DIIS: error= 2.28D-06 at cycle   7 NSaved=   7.
 NSaved= 7 IEnMin= 7 EnMin= -3948.28350094135     IErMin= 7 ErrMin= 2.28D-06
 ErrMax= 2.28D-06 EMaxC= 1.00D-01 BMatC= 9.84D-08 BMatP= 2.47D-07
 IDIUse=1 WtCom= 1.00D+00 WtEn= 0.00D+00
 Coeff-Com:  0.228D-02-0.271D+00-0.757D-01-0.145D+00 0.121D+00 0.671D+00
 Coeff-Com:  0.697D+00
 Coeff:      0.228D-02-0.271D+00-0.757D-01-0.145D+00 0.121D+00 0.671D+00
 Coeff:      0.697D+00
 Gap=     0.138 Goal=   None    Shift=    0.000
 Gap=     0.017 Goal=   None    Shift=    0.000
 RMSDP=3.45D-07 MaxDP=4.71D-05 DE=-1.29D-07 OVMax= 3.70D-04

 Cycle  18  Pass 1  IDiag  1:
 RMSU=  1.26D-07    CP:  9.98D-01  1.01D+00  2.75D-01  5.78D-01  9.34D-01
                    CP:  1.43D+00  1.22D+00
 E= -3948.28350100898     Delta-E=       -0.000000067630 Rises=F Damp=F
 DIIS: error= 1.63D-06 at cycle   8 NSaved=   8.
 NSaved= 8 IEnMin= 8 EnMin= -3948.28350100898     IErMin= 8 ErrMin= 1.63D-06
 ErrMax= 1.63D-06 EMaxC= 1.00D-01 BMatC= 2.44D-08 BMatP= 9.84D-08
 IDIUse=1 WtCom= 1.00D+00 WtEn= 0.00D+00
 Coeff-Com:  0.155D-02-0.179D+00-0.467D-01-0.108D+00 0.367D-01 0.305D+00
 Coeff-Com:  0.474D+00 0.516D+00
 Coeff:      0.155D-02-0.179D+00-0.467D-01-0.108D+00 0.367D-01 0.305D+00
 Coeff:      0.474D+00 0.516D+00
 Gap=     0.138 Goal=   None    Shift=    0.000
 Gap=     0.017 Goal=   None    Shift=    0.000
 RMSDP=1.25D-07 MaxDP=1.39D-05 DE=-6.76D-08 OVMax= 8.03D-05

 Cycle  19  Pass 1  IDiag  1:
 RMSU=  5.26D-08    CP:  9.98D-01  1.01D+00  2.75D-01  6.01D-01  9.57D-01
                    CP:  1.50D+00  1.48D+00  8.51D-01
 E= -3948.28350101910     Delta-E=       -0.000000010124 Rises=F Damp=F
 DIIS: error= 9.79D-07 at cycle   9 NSaved=   9.
 NSaved= 9 IEnMin= 9 EnMin= -3948.28350101910     IErMin= 9 ErrMin= 9.79D-07
 ErrMax= 9.79D-07 EMaxC= 1.00D-01 BMatC= 1.00D-08 BMatP= 2.44D-08
 IDIUse=1 WtCom= 1.00D+00 WtEn= 0.00D+00
 Coeff-Com:  0.351D-03-0.374D-01-0.748D-02-0.321D-01-0.698D-03-0.119D-01
 Coeff-Com:  0.117D+00 0.417D+00 0.555D+00
 Coeff:      0.351D-03-0.374D-01-0.748D-02-0.321D-01-0.698D-03-0.119D-01
 Coeff:      0.117D+00 0.417D+00 0.555D+00
 Gap=     0.138 Goal=   None    Shift=    0.000
 Gap=     0.017 Goal=   None    Shift=    0.000
 RMSDP=7.40D-08 MaxDP=1.06D-05 DE=-1.01D-08 OVMax= 9.00D-05

 Cycle  20  Pass 1  IDiag  1:
 RMSU=  3.30D-08    CP:  9.98D-01  1.01D+00  2.75D-01  6.10D-01  9.66D-01
                    CP:  1.55D+00  1.54D+00  1.04D+00  6.82D-01
 E= -3948.28350102297     Delta-E=       -0.000000003871 Rises=F Damp=F
 DIIS: error= 4.46D-07 at cycle  10 NSaved=  10.
 NSaved=10 IEnMin=10 EnMin= -3948.28350102297     IErMin=10 ErrMin= 4.46D-07
 ErrMax= 4.46D-07 EMaxC= 1.00D-01 BMatC= 4.89D-09 BMatP= 1.00D-08
 IDIUse=1 WtCom= 1.00D+00 WtEn= 0.00D+00
 Coeff-Com: -0.264D-03 0.326D-01 0.114D-01 0.825D-02-0.850D-02-0.136D+00
 Coeff-Com: -0.761D-01 0.192D+00 0.474D+00 0.503D+00
 Coeff:     -0.264D-03 0.326D-01 0.114D-01 0.825D-02-0.850D-02-0.136D+00
 Coeff:     -0.761D-01 0.192D+00 0.474D+00 0.503D+00
 Gap=     0.138 Goal=   None    Shift=    0.000
 Gap=     0.017 Goal=   None    Shift=    0.000
 RMSDP=4.48D-08 MaxDP=6.27D-06 DE=-3.87D-09 OVMax= 3.88D-05

 Cycle  21  Pass 1  IDiag  1:
 RMSU=  2.10D-08    CP:  9.98D-01  1.01D+00  2.74D-01  6.10D-01  9.67D-01
                    CP:  1.56D+00  1.60D+00  1.07D+00  9.97D-01  8.77D-01
 E= -3948.28350102484     Delta-E=       -0.000000001863 Rises=F Damp=F
 DIIS: error= 3.45D-07 at cycle  11 NSaved=  11.
 NSaved=11 IEnMin=11 EnMin= -3948.28350102484     IErMin=11 ErrMin= 3.45D-07
 ErrMax= 3.45D-07 EMaxC= 1.00D-01 BMatC= 1.20D-09 BMatP= 4.89D-09
 IDIUse=1 WtCom= 1.00D+00 WtEn= 0.00D+00
 Coeff-Com: -0.262D-03 0.304D-01 0.964D-02 0.121D-01 0.468D-02-0.781D-01
 Coeff-Com: -0.830D-01-0.199D-01 0.570D-01 0.309D+00 0.759D+00
 Coeff:     -0.262D-03 0.304D-01 0.964D-02 0.121D-01 0.468D-02-0.781D-01
 Coeff:     -0.830D-01-0.199D-01 0.570D-01 0.309D+00 0.759D+00
 Gap=     0.138 Goal=   None    Shift=    0.000
 Gap=     0.017 Goal=   None    Shift=    0.000
 RMSDP=2.47D-08 MaxDP=2.69D-06 DE=-1.86D-09 OVMax= 1.09D-05

 Cycle  22  Pass 1  IDiag  1:
 RMSU=  9.23D-09    CP:  9.98D-01  1.01D+00  2.74D-01  6.09D-01  9.68D-01
                    CP:  1.56D+00  1.62D+00  1.10D+00  1.05D+00  1.23D+00
                    CP:  1.19D+00
 E= -3948.28350102538     Delta-E=       -0.000000000549 Rises=F Damp=F
 DIIS: error= 1.44D-07 at cycle  12 NSaved=  12.
 NSaved=12 IEnMin=12 EnMin= -3948.28350102538     IErMin=12 ErrMin= 1.44D-07
 ErrMax= 1.44D-07 EMaxC= 1.00D-01 BMatC= 3.79D-10 BMatP= 1.20D-09
 IDIUse=1 WtCom= 1.00D+00 WtEn= 0.00D+00
 Coeff-Com: -0.102D-03 0.111D-01 0.346D-02 0.498D-02 0.952D-02-0.121D-01
 Coeff-Com: -0.360D-01-0.772D-01-0.129D+00 0.563D-01 0.531D+00 0.638D+00
 Coeff:     -0.102D-03 0.111D-01 0.346D-02 0.498D-02 0.952D-02-0.121D-01
 Coeff:     -0.360D-01-0.772D-01-0.129D+00 0.563D-01 0.531D+00 0.638D+00
 Gap=     0.138 Goal=   None    Shift=    0.000
 Gap=     0.017 Goal=   None    Shift=    0.000
 RMSDP=1.53D-08 MaxDP=1.67D-06 DE=-5.49D-10 OVMax= 8.97D-06

 Cycle  23  Pass 1  IDiag  1:
 RMSU=  5.16D-09    CP:  9.98D-01  1.01D+00  2.74D-01  6.09D-01  9.67D-01
                    CP:  1.56D+00  1.63D+00  1.11D+00  1.11D+00  1.37D+00
                    CP:  1.49D+00  8.45D-01
 E= -3948.28350102534     Delta-E=        0.000000000044 Rises=F Damp=F
 DIIS: error= 9.00D-08 at cycle  13 NSaved=  13.
 NSaved=13 IEnMin=12 EnMin= -3948.28350102538     IErMin=13 ErrMin= 9.00D-08
 ErrMax= 9.00D-08 EMaxC= 1.00D-01 BMatC= 1.23D-10 BMatP= 3.79D-10
 IDIUse=1 WtCom= 1.00D+00 WtEn= 0.00D+00
 Coeff-Com:  0.512D-05-0.119D-02-0.272D-03-0.489D-03 0.666D-02 0.139D-01
 Coeff-Com: -0.241D-02-0.493D-01-0.115D+00-0.479D-01 0.179D+00 0.495D+00
 Coeff-Com:  0.522D+00
 Coeff:      0.512D-05-0.119D-02-0.272D-03-0.489D-03 0.666D-02 0.139D-01
 Coeff:     -0.241D-02-0.493D-01-0.115D+00-0.479D-01 0.179D+00 0.495D+00
 Coeff:      0.522D+00
 Gap=     0.138 Goal=   None    Shift=    0.000
 Gap=     0.017 Goal=   None    Shift=    0.000
 RMSDP=7.11D-09 MaxDP=6.92D-07 DE= 4.37D-11 OVMax= 4.55D-06

 SCF Done:  E(UB3LYP) =  -3948.28350103     A.U. after   23 cycles
             Convg  =    0.7114D-08             -V/T =  2.0066
 <Sx>= 0.0000 <Sy>= 0.0000 <Sz>= 0.5000 <S**2>= 0.7548 S= 0.5024
 <L.S>= 0.000000000000E+00
 KE= 3.922439140073D+03 PE=-4.401907786790D+04 EE= 1.870530197631D+04
 Annihilation of the first spin contaminant:
 S**2 before annihilation     0.7548,   after     0.7500
[...]
    34  C    0.000000   0.000000   0.000000   0.000000   0.000000
    35  C    0.000000   0.000000   0.000000   0.000000   0.000000
    36  C    0.000004  -0.000006   0.000009   0.000002  -0.000055
    37  C   -0.000003   0.000013   0.000000   0.000001  -0.000104
    38  C    0.000001  -0.000006  -0.000001   0.000001   0.000007
    39  C    0.000000  -0.000001   0.000000   0.000000  -0.000001
    40  C    0.000000   0.000001  -0.000003   0.000000   0.000003
    41  C    0.000000   0.000000  -0.000014   0.000005  -0.000008
    42  C    0.000002  -0.000003   0.000059  -0.000042  -0.000147
    43  C    0.000000   0.000000   0.000000   0.000000   0.000000
    44  C    0.000000   0.000000   0.000000   0.000000   0.000000
    45  C    0.000000   0.000000   0.000000   0.000000   0.000000
    46  C    0.000000   0.000000   0.000000   0.000000   0.000000
    47  C    0.000000   0.000000   0.000000   0.000000   0.000000
    48  C    0.000000   0.000000   0.000000   0.000000   0.000000
    49  C    0.000000   0.000000   0.000000   0.000000   0.000000
    50  C    0.000000   0.000000   0.000000   0.000000   0.000000
    51  C    0.000000   0.000000   0.000000   0.000000   0.000000
    52  C    0.000000   0.000000   0.000000   0.000000   0.000000
    53  C    0.000109   0.000073   0.000001  -0.000001  -0.000044
    54  C   -0.000039   0.000011   0.000000   0.000000   0.000002
    55  C   -0.000007  -0.000004   0.000000   0.000000   0.000000
    56  C    0.000000  -0.000001   0.000000   0.000000   0.000000
    57  C   -0.000003   0.000003   0.000000   0.000000   0.000006
    58  C    0.000000   0.000000   0.000000   0.000000   0.000000
    59  C    0.000000   0.000000   0.000000   0.000000   0.000000
    60  C    0.000000   0.000000   0.000000   0.000000   0.000000
    61  C    0.000000   0.000000   0.000000   0.000000   0.000000
    62  C    0.000000   0.000000   0.000000   0.000000   0.000000
    63  C    0.000000   0.000000   0.000000   0.000000   0.000000
    64  C    0.000000   0.000000   0.000000   0.000000   0.000000
    65  C    0.000000   0.000000   0.000000   0.000000   0.000000
    66  C    0.000000   0.000000   0.000000   0.000000   0.000000
    67  C    0.000000   0.000000   0.000000   0.000000   0.000000
    68  C    0.000000   0.000000   0.000000   0.000000   0.000000
    69  C    0.000000   0.000000   0.000000   0.000000   0.000000
    70  C    0.000000   0.000000   0.000000   0.000000   0.000000
    71  C    0.000000   0.000000   0.000000   0.000000   0.000000
    72  C    0.000000   0.000000   0.000000   0.000001   0.000000
    73  C    0.000006   0.000000  -0.000007   0.000020   0.000047
    74  C   -0.000007   0.000000  -0.000004  -0.000002  -0.000020
    75  C   -0.000001   0.000000   0.000003  -0.000002  -0.000006
    76  C    0.000000   0.000000   0.000000   0.000000   0.000000
    77  C    0.000000   0.000000   0.000000   0.000000   0.000001
    78  H    0.000000   0.000000   0.000000  -0.000001   0.000001
    79  H    0.000000   0.000000   0.000000   0.000000   0.000000
    80  H    0.000000   0.000000   0.000000   0.000000   0.000000
    81  H    0.000000   0.000000   0.000000   0.000000   0.000000
    82  H    0.000000   0.000000   0.000000   0.000000   0.000000
    83  H    0.000000   0.000000   0.000000   0.000001   0.000001
    84  H    0.000000   0.000000   0.000000   0.000000   0.000000
    85  H    0.000000   0.000000   0.000000   0.000000   0.000000
    86  H    0.000000   0.000000   0.000000   0.000000   0.000000
    87  H    0.000000   0.000000   0.000000   0.000000   0.000000
    88  H    0.000000   0.000000   0.000000   0.000000  -0.000001
    89  H    0.000000   0.000000   0.000000   0.000000   0.000000
    90  H    0.000000   0.000000   0.000004  -0.000002  -0.000004
    91  O    0.000000   0.000000  -0.000010  -0.000005   0.000139
    92  H    0.000000   0.000000   0.000000   0.000000   0.000000
    93  H    0.000000   0.000000   0.000000   0.000000   0.000000
    94  H    0.000000   0.000000   0.000000   0.000000   0.000000
    95  H    0.000000   0.000001   0.000000   0.000000   0.000000
    96  H    0.000000   0.000000   0.000000   0.000000   0.000000
    97  O    0.000000   0.000000   0.000000   0.000000   0.000000
    98  H    0.000000   0.000000   0.000000   0.000000   0.000000
    99  H    0.000000   0.000000   0.000000   0.000000   0.000000
   100  H    0.000000   0.000000   0.000000   0.000000   0.000000
   101  O    0.000000   0.000000   0.000000   0.000000   0.000000
   102  H    0.000000   0.000000   0.000000   0.000000   0.000000
   103  O    0.000000   0.000000   0.000000   0.000000   0.000000
   104  H    0.000000   0.000000   0.000000   0.000000   0.000000
   105  H    0.000000   0.000000   0.000000   0.000000   0.000000
   106  H    0.000000   0.000000   0.000000   0.000000   0.000000
   107  O    0.000000   0.000000   0.000000   0.000000   0.000000
   108  H    0.000000   0.000000   0.000000   0.000000   0.000000
   109  H    0.000000   0.000000   0.000000   0.000000   0.000000
   110  H    0.000000   0.000000   0.000000   0.000000   0.000000
   111  H    0.000001   0.000000   0.000000  -0.000016  -0.000012
   112  H   -0.000024   0.000001  -0.000003   0.000002   0.000023
   113  H    0.000000   0.000000   0.000000   0.000000   0.000000
   114  H    0.000000   0.000000   0.000000   0.000000   0.000000
   115  O    0.000000   0.000000   0.000000   0.000000   0.000000
   116  H    0.000026  -0.000025   0.000000   0.000000   0.000000
   117  O   -0.000109  -0.000060  -0.000002   0.000001   0.000060
   118  H    0.000000   0.000000   0.000000   0.000000   0.000000
   119  H    0.000000   0.000000   0.000000   0.000000   0.000000
   120  H    0.000000   0.000000   0.000000   0.000000   0.000000
   121  H    0.000000   0.000000   0.000000   0.000000   0.000000
   122  H    0.000000   0.000000   0.000000   0.000000   0.000000
   123  H    0.000000   0.000000   0.000000   0.000000   0.000000
   124  H    0.000000   0.000000   0.000000   0.000000   0.000000
   125  O    0.000000   0.000000   0.000000   0.000000   0.000000
   126  H    0.000000   0.000000   0.000000   0.000000   0.000000
   127  H    0.000000   0.000000   0.000000   0.000000   0.000000
   128  H    0.000000   0.000000   0.000000   0.000000   0.000000
   129  H    0.000000   0.000000   0.000000   0.000000   0.000000
   130  C    0.000000   0.000000   0.000000   0.000000   0.000000
   131  C    0.000000   0.000000   0.000000   0.000000   0.000000
   132  C    0.000000   0.000000   0.000000   0.000000   0.000000
   133  C    0.000000   0.000000   0.000000   0.000000   0.000000
   134  C    0.000000   0.000000   0.000000   0.000000   0.000000
   135  C    0.000000   0.000000   0.000000   0.000000   0.000000
   136  C   -0.000047   0.000019   0.000000   0.000000  -0.000003
   137  C    0.000001   0.000000  -0.000021  -0.000004   0.000162
   138  H    0.000000   0.000000   0.000000   0.000000   0.000000
   139  H    0.000000   0.000000   0.000000   0.000000   0.000000
   140  H    0.000000   0.000000   0.000000   0.000000   0.000000
   141  H    0.000000   0.000000   0.000000   0.000000   0.000000
   142  H    0.000000   0.000000   0.000000   0.000000   0.000000
   143  H    0.000000   0.000000   0.000000   0.000000   0.000000
   144  H    0.000000   0.000000   0.000000   0.000000   0.000000
   145  H    0.000000   0.000000   0.000000   0.000000   0.000000
   146  H    0.000000   0.000000   0.000000   0.000000   0.000000
   147  H    0.000000   0.000000   0.000000   0.000000   0.000000
   148  H    0.000000   0.000000   0.000000   0.000000   0.000000
   149  H    0.000000   0.000000   0.000000   0.000000   0.000000
   150  H    0.000000   0.000000   0.000000   0.000000   0.000000
   151  H    0.000000   0.000000   0.000000   0.000000   0.000000
   152  H    0.000000   0.000000   0.000000   0.000000   0.000000
   153  H    0.000000   0.000000   0.000000   0.000000   0.000000
   154  H    0.000000   0.000000   0.000000   0.000000   0.000000
   155  H    0.000000   0.000000   0.000000   0.000000   0.000000
   156  H   -0.000007   0.000005   0.000000   0.000000   0.000001
   157  H    0.000509  -0.000106   0.000000   0.000000  -0.000005
   158  H   -0.000106   0.000252   0.000000   0.000000   0.000002
   159  H    0.000000   0.000000  -0.000006   0.000003   0.000031
   160  H    0.000000   0.000000   0.000003  -0.000073   0.000063
   161  H   -0.000005   0.000002   0.000031   0.000063  -0.000234
 Mulliken atomic spin densities:
              1
     1  C   -0.008010
     2  C    0.013535
     3  C    0.043177
     4  C    0.050700
     5  C    0.013333
     6  C    0.007611
     7  C    0.048389
     8  C    0.018934
     9  C    0.021264
    10  C    0.006871
    11  C    0.014262
    12  C    0.035198
    13  C   -0.011946
    14  C   -0.003587
    15  C    0.033132
    16  C    0.026146
    17  C    0.003364
    18  C    0.001417
    19  C    0.030888
    20  C    0.026772
    21  C    0.004004
    22  C    0.004578
    23  C    0.011367
    24  C    0.028183
    25  C   -0.006941
    26  N    0.080655
    27  N    0.090772
    28  N    0.095840
    29  N    0.068770
    30  C   -0.004423
    31  C   -0.007513
    32  C   -0.003293
    33  C   -0.005316
    34  C   -0.005372
    35  C   -0.003551
    36  C   -0.008112
    37  C   -0.006119
    38  C    0.016186
    39  C   -0.007098
    40  C    0.020674
    41  C   -0.008806
    42  C    0.017258
    43  C    0.010916
    44  C   -0.003819
    45  C    0.014803
    46  C   -0.006217
    47  C    0.012331
    48  C    0.012612
    49  C   -0.006789
    50  C    0.016193
    51  C   -0.005422
    52  C    0.011979
    53  C    0.014908
    54  C   -0.008153
    55  C    0.019016
    56  C   -0.006337
    57  C    0.014910
    58  C    0.017856
    59  C   -0.007896
    60  C    0.019892
    61  C   -0.008664
    62  C    0.016492
    63  C    0.019140
    64  C   -0.010094
    65  C    0.024469
    66  C   -0.005498
    67  C    0.015768
    68  C    0.014390
    69  C   -0.007489
    70  C    0.018718
    71  C   -0.004406
    72  C    0.011730
    73  C    0.018240
    74  C   -0.008949
    75  C    0.024509
    76  C   -0.009952
    77  C    0.018566
    78  H    0.000047
    79  H   -0.000203
    80  H   -0.001244
    81  H   -0.000453
    82  H   -0.000203
    83  H   -0.001491
    84  H   -0.000374
    85  H   -0.000648
    86  H    0.000188
    87  H   -0.001554
    88  H   -0.000290
    89  H   -0.000416
    90  H    0.000449
    91  O    0.001356
    92  H   -0.000512
    93  H    0.000284
    94  H    0.000384
    95  H   -0.000695
    96  H    0.000301
    97  O    0.002459
    98  H   -0.000558
    99  H    0.000246
   100  H    0.000299
   101  O    0.002569
   102  H    0.000403
   103  O    0.003320
   104  H    0.000330
   105  H   -0.000718
   106  H    0.000378
   107  O    0.001256
   108  H   -0.000849
   109  H    0.000402
   110  H   -0.000732
   111  H   -0.001012
   112  H    0.000476
   113  H   -0.001038
   114  H    0.000364
   115  O    0.001276
   116  H    0.000326
   117  O    0.003515
   118  H   -0.000819
   119  H    0.000437
   120  H   -0.000701
   121  H   -0.000597
   122  H    0.000393
   123  H   -0.000696
   124  H    0.000293
   125  O    0.003447
   126  H   -0.000873
   127  H   -0.000640
   128  H   -0.001045
   129  H   -0.000798
   130  C    0.000733
   131  C   -0.000191
   132  C    0.000954
   133  C   -0.000147
   134  C   -0.000279
   135  C   -0.000172
   136  C   -0.000253
   137  C    0.000579
   138  H    0.000004
   139  H   -0.000007
   140  H   -0.000145
   141  H   -0.000017
   142  H    0.000155
   143  H    0.000387
   144  H   -0.000024
   145  H   -0.000038
   146  H    0.000018
   147  H   -0.000053
   148  H    0.000187
   149  H    0.000229
   150  H   -0.000002
   151  H    0.000324
   152  H    0.000163
   153  H   -0.000014
   154  H    0.000174
   155  H    0.000205
   156  H   -0.000002
   157  H    0.000294
   158  H    0.000174
   159  H    0.000039
   160  H   -0.000071
   161  H   -0.000189
 Sum of Mulliken atomic spin densities =   1.00000
 Electronic spatial extent (au):  <R**2>=          90044.6219
 Charge=              1.0000 electrons
 Dipole moment (field-independent basis, Debye):
    X=             -1.5954    Y=             -5.0355    Z=             -1.6885  Tot=              5.5455
 Quadrupole moment (field-independent basis, Debye-Ang):
   XX=           -390.0114   YY=           -402.0793   ZZ=           -465.1354
   XY=             -1.1855   XZ=             -7.2442   YZ=             -1.0666
 Traceless Quadrupole moment (field-independent basis, Debye-Ang):
   XX=             29.0640   YY=             16.9961   ZZ=            -46.0601
   XY=             -1.1855   XZ=             -7.2442   YZ=             -1.0666
 Octapole moment (field-independent basis, Debye-Ang**2):
  XXX=             60.2471  YYY=           -139.9228  ZZZ=            -34.4421  XYY=            -70.1694
  XXY=           -329.9693  XXZ=            -25.6083  XZZ=            -86.9657  YZZ=            -23.6793
  YYZ=           -115.1444  XYZ=           -145.5241
 Hexadecapole moment (field-independent basis, Debye-Ang**3):
 XXXX=         -51992.7588 YYYY=         -40618.7026 ZZZZ=         -16056.5747 XXXY=           -225.0784
 XXXZ=           -335.9624 YYYX=            662.1820 YYYZ=            -26.9014 ZZZX=            143.1271
 ZZZY=            -95.9109 XXYY=         -15409.0821 XXZZ=         -10618.4925 YYZZ=          -9119.1402
 XXYZ=            479.8949 YYXZ=            316.6181 ZZXY=             64.0291
 N-N= 1.744305325049D+04 E-N=-6.599674536780D+04  KE= 5.882749277221D+03
 Leave Link  601 at Tue Jan 27 17:10:05 2015, MaxMem= 2147483648 cpu:     114.1
 (Enter /opt/g09/l9999.exe)
 1\1\GINC-CHPC-SCANDIUM\SP\UB3LYP\CC-pVDZ\C81H68N4O8(1+,2)\JARVIST\27-J
 an-2015\0\\#p sp B3LYP/cc-pVDZ\\Auto Spiro; and yes I said yes I will 
 Yes.\\1,2\C,0,-0.038574,0.039905,0.017485\C,0,-0.881721,0.867467,0.993
 186\C,0,-0.656824,0.440334,2.31961\C,0,0.362486,-0.60977,2.316194\C,0,
 0.76715,-0.843081,0.989835\C,0,-0.877857,-0.800187,-0.961694\C,0,-0.37
 9038,-0.66172,-2.269524\C,0,0.72858,0.295187,-2.257089\C,0,0.895434,0.
 781675,-0.94549\C,0,-1.989411,-1.586259,-0.690558\C,0,-2.620094,-2.274
 79,-1.746255\C,0,-2.079715,-2.180468,-3.045817\C,0,-0.97944,-1.372299,
 -3.311135\C,0,0.965207,-1.329589,3.349316\C,0,1.973521,-2.244716,3.055
 9\C,0,2.421473,-2.433773,1.735195\C,0,1.791809,-1.726557,0.690856\C,0,
 -1.813127,1.854752,0.709311\C,0,-2.53715,2.44655,1.764255\C,0,-2.29293
 4,2.034252,3.084964\C,0,-1.366393,1.031888,3.364589\C,0,1.572866,0.739
 527,-3.27912\C,0,2.572629,1.661817,-2.982575\C,0,2.739695,2.148371,-1.
 676557\C,0,1.888199,1.708139,-0.65009\N,0,-3.791219,-3.040291,-1.53406
 1\N,0,3.509407,-3.304025,1.449569\N,0,-3.525479,3.431784,1.482628\N,0,
 3.808388,3.064986,-1.405503\C,0,5.141604,2.591626,-1.498095\C,0,-3.211
 326,4.504487,0.599664\C,0,3.51736,4.217611,-0.620904\C,0,-4.611451,3.6
 26,2.386329\C,0,-4.173371,-3.481173,-0.235175\C,0,-4.78184,-3.115927,-
 2.556727\C,0,4.427118,-3.68492,2.471739\C,0,3.507529,-4.065381,0.24451
 5\C,0,4.677617,-5.042167,2.720653\C,0,5.581424,-5.446355,3.701639\C,0,
 6.240861,-4.492443,4.476784\C,0,6.000955,-3.138198,4.244666\C,0,5.1191
 11,-2.723927,3.244911\C,0,-5.406548,-3.103783,0.302694\C,0,-5.832483,-
 3.569378,1.549188\C,0,-5.00152,-4.408194,2.285595\C,0,-3.762943,-4.799
 552,1.769579\C,0,-3.349398,-4.362612,0.50663\C,0,-5.302956,-4.376022,-
 2.940604\C,0,-6.292476,-4.445644,-3.927118\C,0,-6.751909,-3.281851,-4.
 549723\C,0,-6.235175,-2.040186,-4.188126\C,0,-5.263361,-1.965706,-3.18
 9183\C,0,4.685615,-4.172586,-0.53669\C,0,4.678156,-4.937319,-1.706835\
 C,0,3.50847,-5.574595,-2.128865\C,0,2.341405,-5.459729,-1.379157\C,0,2
 .353721,-4.719943,-0.196281\C,0,-1.976841,5.164832,0.679481\C,0,-1.693
 705,6.263318,-0.130104\C,0,-2.649141,6.727802,-1.036476\C,0,-3.874252,
 6.06988,-1.140842\C,0,-4.161176,4.959921,-0.34335\C,0,-5.489583,2.5554
 71,2.689066\C,0,-6.550586,2.75596,3.575599\C,0,-6.769471,4.014208,4.14
 4822\C,0,-5.923321,5.075361,3.839579\C,0,-4.84712,4.871572,2.973853\C,
 0,2.604563,5.178655,-1.118692\C,0,2.30897,6.313915,-0.359996\C,0,2.921
 419,6.510451,0.882262\C,0,3.828841,5.57619,1.372422\C,0,4.114999,4.434
 059,0.621808\C,0,5.449122,1.239307,-1.269919\C,0,6.757142,0.76671,-1.3
 66465\C,0,7.800424,1.640351,-1.672943\C,0,7.51232,2.985113,-1.907795\C
 ,0,6.203471,3.462733,-1.842484\H,0,2.030232,2.074838,0.362457\H,0,-2.0
 01765,2.165016,-0.314125\H,0,-2.840941,2.503845,3.89519\H,0,-1.197747,
 0.727134,4.394501\H,0,0.661557,-1.182277,4.382793\H,0,2.441527,-2.8003
 04,3.860736\H,0,1.454486,0.374748,-4.296404\H,0,3.238476,2.021194,-3.7
 61149\H,0,-0.598956,-1.300915,-4.327214\H,0,-2.545225,-2.735916,-3.852
 534\H,0,2.118799,-1.865532,-0.334499\H,0,-2.389754,-1.648127,0.316136\
 H,0,6.497652,-2.367958,4.827445\O,0,4.896574,-1.375766,3.103597\H,0,-6
 .042521,-2.445898,-0.28198\H,0,-6.802316,-3.271001,1.937391\H,0,5.7521
 15,-6.506235,3.869989\H,0,4.146737,-5.783796,2.131586\H,0,-3.132295,-5
 .463491,2.349342\O,0,-2.185459,-4.738332,-0.087055\H,0,4.819767,3.6958
 6,0.992922\H,0,4.306981,5.723996,2.336296\H,0,1.623514,7.061736,-0.742
 668\O,0,2.087496,4.921978,-2.355712\H,0,-7.223634,1.939415,3.810933\O,
 0,-5.223676,1.369154,2.070894\H,0,-6.08472,6.055525,4.278731\H,0,-4.17
 2724,5.689452,2.740842\H,0,-4.635758,6.398213,-1.841915\O,0,-5.405793,
 4.392376,-0.466596\H,0,-2.443808,7.593518,-1.660428\H,0,-0.737254,6.76
 6674,-0.025961\H,0,-1.244936,4.814924,1.400939\H,0,4.645161,0.558597,-
 1.011263\H,0,6.955443,-0.286002,-1.18255\H,0,8.824194,1.282545,-1.7376
 46\H,0,8.29468,3.69534,-2.15964\O,0,5.992013,4.804248,-2.074406\H,0,5.
 576883,-5.022802,-2.306827\O,0,5.777599,-3.495413,-0.077807\H,0,3.5187
 95,-6.152234,-3.048899\H,0,1.427038,-5.946629,-1.706083\H,0,1.453581,-
 4.623947,0.401317\H,0,-4.853981,-1.005511,-2.890168\H,0,-6.591514,-1.1
 32631,-4.666586\H,0,-7.514583,-3.35696,-5.319994\H,0,-6.697952,-5.4054
 37,-4.226156\O,0,-4.781304,-5.459128,-2.300432\H,0,6.9382,-4.795991,5.
 252694\H,0,-5.309312,-4.770961,3.262488\H,0,-7.607352,4.153472,4.82243
 1\H,0,2.686521,7.402925,1.455867\C,0,5.445462,5.110984,-3.359315\C,0,1
 .123136,5.816139,-2.888906\C,0,-5.436387,3.06571,-1.004882\C,0,-5.9898
 95,0.230851,2.43161\C,0,-5.27918,-6.74429,-2.631201\C,0,-1.36407,-5.67
 7476,0.584738\C,0,7.008035,-3.644958,-0.76838\C,0,5.473006,-0.764189,1
 .94606\H,0,6.100899,4.741342,-4.159896\H,0,5.391111,6.201201,-3.411531
 \H,0,4.441016,4.692199,-3.479584\H,0,0.845372,5.405039,-3.861247\H,0,1
 .539392,6.823391,-3.027606\H,0,0.2323,5.872881,-2.252094\H,0,-6.493722
 ,2.821757,-1.133339\H,0,-4.975732,2.34294,-0.326071\H,0,-4.936058,3.03
 3578,-1.982081\H,0,-5.565378,-0.605929,1.87564\H,0,-7.047061,0.353678,
 2.159072\H,0,-5.916993,0.025173,3.507355\H,0,-4.728263,-7.446666,-2.00
 3223\H,0,-5.102282,-6.987034,-3.687577\H,0,-6.352449,-6.830829,-2.4160
 4\H,0,-0.535452,-5.885735,-0.09344\H,0,-1.904425,-6.611032,0.791163\H,
 0,-0.970642,-5.272755,1.526565\H,0,7.73796,-3.06359,-0.202291\H,0,6.94
 701,-3.254933,-1.793015\H,0,7.326269,-4.694905,-0.799251\H,0,6.569878,
 -0.80418,1.99383\H,0,5.148538,0.277912,1.960478\H,0,5.135311,-1.246219
 ,1.024905\\Version=EM64L-G09RevA.02\State=2-A\HF=-3948.283501\S2=0.754
 827\S2-1=0.\S2A=0.750022\RMSD=7.114e-09\Dipole=-0.6276849,-1.9811067,-
 0.6643077\Quadrupole=21.6083588,12.636172,-34.2445308,-0.8814227,-5.38
 59159,-0.7929642\PG=C01 [X(C81H68N4O8)]\\@


 IT PROBABLY IS NOT POSSIBLE FOR A SCIENTIST TO INTERROGATE NATURE 
 FROM A WHOLLY DISINTERESTED VIEWPOINT.
 EVEN IF HE HAS NO PARTICULAR AXE TO GRIND, HE IS LIKELY TO HAVE 
 A DISTINCTIVE WAY OF VIEWING NATURE.

                                                   -- JOHN LOSEE
 Job cpu time:  1 days  2 hours 35 minutes 48.4 seconds.
 File lengths (MBytes):  RWF=   2510 Int=      0 D2E=      0 Chk=    125 Scr=      1
 Normal termination of Gaussian 09 at Tue Jan 27 17:10:05 2015.
