 Entering Gaussian System, Link 0=g09
 Input=sp_3_B3LYP_cc-pVDZ.com
 Output=sp_3_B3LYP_cc-pVDZ.log
 Initial command:
 /opt/g09/l1.exe /home/jarvist/2014-07_SPIRO/b3lyp-631gs_opt/delta_scf/cation/Gau-16312.inp -scrdir=/home/jarvist/2014-07_SPIRO/b3lyp-631gs_opt/delta_scf/cation/
 Default is to use a total of   8 processors:
                                8 via shared-memory
                                1 via Linda
 Entering Link 1 = /opt/g09/l1.exe PID=     16314.
  
 Copyright (c) 1988,1990,1992,1993,1995,1998,2003,2009, Gaussian, Inc.
                  All Rights Reserved.
  
 This is part of the Gaussian(R) 09 program.  It is based on
 the Gaussian(R) 03 system (copyright 2003, Gaussian, Inc.),
 the Gaussian(R) 98 system (copyright 1998, Gaussian, Inc.),
 the Gaussian(R) 94 system (copyright 1995, Gaussian, Inc.),
 the Gaussian 92(TM) system (copyright 1992, Gaussian, Inc.),
 the Gaussian 90(TM) system (copyright 1990, Gaussian, Inc.),
 the Gaussian 88(TM) system (copyright 1988, Gaussian, Inc.),
 the Gaussian 86(TM) system (copyright 1986, Carnegie Mellon
 University), and the Gaussian 82(TM) system (copyright 1983,
 Carnegie Mellon University). Gaussian is a federally registered
 trademark of Gaussian, Inc.
  
 This software contains proprietary and confidential information,
 including trade secrets, belonging to Gaussian, Inc.
  
 This software is provided under written license and may be
 used, copied, transmitted, or stored only in accord with that
 written license.
  
 The following legend is applicable only to US Government
 contracts under FAR:
  
                    RESTRICTED RIGHTS LEGEND
  
 Use, reproduction and disclosure by the US Government is
 subject to restrictions as set forth in subparagraphs (a)
 and (c) of the Commercial Computer Software - Restricted
 Rights clause in FAR 52.227-19.
  
 Gaussian, Inc.
 340 Quinnipiac St., Bldg. 40, Wallingford CT 06492
  
  
 ---------------------------------------------------------------
 Warning -- This program may not be used in any manner that
 competes with the business of Gaussian, Inc. or will provide
 assistance to any competitor of Gaussian, Inc.  The licensee
 of this program is prohibited from giving any competitor of
 Gaussian, Inc. access to this program.  By using this program,
 the user acknowledges that Gaussian, Inc. is engaged in the
 business of creating and licensing software in the field of
 computational chemistry and represents and warrants to the
 licensee that it is not a competitor of Gaussian, Inc. and that
 it will not use this program in any manner prohibited above.
 ---------------------------------------------------------------
  

 Cite this work as:
 Gaussian 09, Revision A.02,
 M. J. Frisch, G. W. Trucks, H. B. Schlegel, G. E. Scuseria, 
 M. A. Robb, J. R. Cheeseman, G. Scalmani, V. Barone, B. Mennucci, 
 G. A. Petersson, H. Nakatsuji, M. Caricato, X. Li, H. P. Hratchian, 
 A. F. Izmaylov, J. Bloino, G. Zheng, J. L. Sonnenberg, M. Hada, 
 M. Ehara, K. Toyota, R. Fukuda, J. Hasegawa, M. Ishida, T. Nakajima, 
 Y. Honda, O. Kitao, H. Nakai, T. Vreven, J. A. Montgomery, Jr., 
 J. E. Peralta, F. Ogliaro, M. Bearpark, J. J. Heyd, E. Brothers, 
 K. N. Kudin, V. N. Staroverov, R. Kobayashi, J. Normand, 
 K. Raghavachari, A. Rendell, J. C. Burant, S. S. Iyengar, J. Tomasi, 
 M. Cossi, N. Rega, J. M. Millam, M. Klene, J. E. Knox, J. B. Cross, 
 V. Bakken, C. Adamo, J. Jaramillo, R. Gomperts, R. E. Stratmann, 
 O. Yazyev, A. J. Austin, R. Cammi, C. Pomelli, J. W. Ochterski, 
 R. L. Martin, K. Morokuma, V. G. Zakrzewski, G. A. Voth, 
 P. Salvador, J. J. Dannenberg, S. Dapprich, A. D. Daniels, 
 O. Farkas, J. B. Foresman, J. V. Ortiz, J. Cioslowski, 
 and D. J. Fox, Gaussian, Inc., Wallingford CT, 2009.
 
 ******************************************
 Gaussian 09:  EM64L-G09RevA.02 11-Jun-2009
                27-Jan-2015 
 ******************************************
 %mem=16GB
 %nprocs=24
 Will use up to   24 processors via shared memory.
 Default route:  MaxDisk=100GB
 -------------------
 #p sp B3LYP/cc-pVDZ
 -------------------
 1/38=1/1;
 2/12=2,17=6,18=5,40=1/2;
 3/5=16,11=2,16=1,25=1,30=1,74=-5/1,2,3;
 4//1;
 5/5=2,38=5/2;
 6/7=2,8=2,9=2,10=2,28=1/1;
 99/5=1,9=1/99;
 Leave Link    1 at Tue Jan 27 17:10:05 2015, MaxMem= 2147483648 cpu:       1.5
 (Enter /opt/g09/l101.exe)
 ------------------------------------------
 Auto Spiro; and yes I said yes I will Yes.
 ------------------------------------------
 Symbolic Z-matrix:
 Charge =  1 Multiplicity = 2
 C                    -0.05935   0.22169   0.14161 
 C                    -0.84783   1.12012   1.10425 
 C                    -0.63186   0.71913   2.43892 
 C                     0.36202  -0.35692   2.45253 
 C                     0.72438  -0.65454   1.12482 
 C                    -1.00547  -0.58724  -0.76221 
 C                    -0.7314   -0.33029  -2.11781 
 C                     0.41054   0.58081  -2.20281 
 C                     0.81912   0.92642  -0.89805 
 C                    -2.02167  -1.4516   -0.38555 
 C                    -2.78745  -2.08711  -1.38081 
 C                    -2.51476  -1.82616  -2.73746 
 C                    -1.49886  -0.94931  -3.10788 
 C                     0.96334  -1.05578   3.50186 
 C                     1.91356  -2.03427   3.2191 
 C                     2.28978  -2.31918   1.89211 
 C                     1.67971  -1.6146    0.83595 
 C                    -1.74756   2.13062   0.79956 
 C                    -2.46732   2.74475   1.84004 
 C                    -2.26184   2.33534   3.16853 
 C                    -1.34535   1.33023   3.47345 
 C                     1.12302   1.05485  -3.30679 
 C                     2.25267   1.84104  -3.09903 
 C                     2.68351   2.16002  -1.79904 
 C                     1.9422    1.71572  -0.68847 
 N                    -3.80923  -3.00405  -1.01487 
 N                     3.29073  -3.28818   1.62729 
 N                    -3.41926   3.76487   1.54197 
 N                     3.89703   2.88606  -1.62484 
 C                     5.08228   2.39206  -2.23156 
 C                    -2.98152   4.95319   0.90119 
 C                     3.91076   4.06987  -0.84086 
 C                    -4.77627   3.58387   1.91516 
 C                    -3.5324   -3.97231  -0.00271 
 C                    -5.064    -2.99491  -1.66925 
 C                     4.43119  -3.37365   2.48024 
 C                     3.19901  -4.13579   0.49451 
 C                     4.85821  -4.60831   2.97854 
 C                     5.98155  -4.70414   3.80265 
 C                     6.68383  -3.54766   4.16033 
 C                     6.25451  -2.30396   3.67329 
 C                     5.15062  -2.22007   2.83661 
 C                    -4.42205  -4.17817   1.05598 
 C                    -4.16157  -5.13384   2.04088 
 C                    -2.98208  -5.88519   1.9879 
 C                    -2.07842  -5.67489   0.9358 
 C                    -2.35461  -4.73735  -0.04987 
 C                    -5.75893  -4.19451  -1.8826 
 C                    -7.00188  -4.17208  -2.51681 
 C                    -7.57027  -2.97219  -2.96703 
 C                    -6.85856  -1.78328  -2.75237 
 C                    -5.62411  -1.78358  -2.10174 
 C                     4.34536  -4.43261  -0.2554 
 C                     4.24686  -5.26962  -1.36833 
 C                     3.01779  -5.81991  -1.75854 
 C                     1.88256  -5.51059  -0.99568 
 C                     1.96325  -4.68379   0.12517 
 C                    -1.7873    5.55446   1.32171 
 C                    -1.34978   6.72424   0.68988 
 C                    -2.09162   7.29593  -0.34553 
 C                    -3.2843    6.69029  -0.74978 
 C                    -3.7378    5.51563  -0.1384 
 C                    -5.37674   2.32081   1.84056 
 C                    -6.70385   2.12579   2.23055 
 C                    -7.46612   3.20667   2.68355 
 C                    -6.87637   4.4771    2.75225 
 C                    -5.5508    4.66142   2.38578 
 C                     2.85742   4.99746  -0.92965 
 C                     2.86467   6.15988  -0.17031 
 C                     3.93566   6.43542   0.69177 
 C                     4.99125   5.52278   0.78838 
 C                     4.96723   4.34698   0.03562 
 C                     5.30798   1.00778  -2.27073 
 C                     6.46537   0.51694  -2.88677 
 C                     7.40358   1.39067  -3.44144 
 C                     7.17265   2.76708  -3.38515 
 C                     6.01262   3.28046  -2.7932 
 H                     2.28249   1.9569    0.31441 
 H                    -1.92604   2.43826  -0.22673 
 H                    -2.83108   2.81701   3.95798 
 H                    -1.1936    1.03008   4.50721 
 H                     0.69454  -0.85074   4.53508 
 H                     2.37962  -2.58626   4.02862 
 H                     0.81401   0.80511  -4.31858 
 H                     2.8324    2.20178  -3.94296 
 H                    -1.29992  -0.76908  -4.16135 
 H                    -3.10708  -2.3238   -3.49829 
 H                     1.96715  -1.82205  -0.18957 
 H                    -2.23233  -1.64695   0.66138 
 O                     3.85423   7.61112   1.39472 
 C                     4.92591   7.94436   2.26015 
 O                    -8.77571   3.13261   3.07914 
 C                    -9.41357   1.86935   3.0259 
 O                     7.78642  -3.52182   4.96731 
 O                    -2.62391  -6.83935   2.90008 
 C                    -3.49509  -7.07985   3.99133 
 C                     8.26453  -4.75161   5.48559 
 H                     6.81365  -1.41622   3.95206 
 H                     4.83333  -1.25474   2.45445 
 H                    -5.33423  -3.59167   1.10724 
 H                    -4.87657  -5.27033   2.84419 
 H                     6.28639  -5.67878   4.16636 
 H                     4.30924  -5.50691   2.71438 
 H                    -1.16855  -6.26459   0.89241 
 H                    -1.64609  -4.59414  -0.85921 
 H                     5.78555   3.63987   0.12572 
 H                     5.82866   5.70208   1.45347 
 H                     2.04626   6.86969  -0.23767 
 H                     2.02821   4.8021   -1.60231 
 H                    -7.12901   1.131     2.1591 
 H                    -4.80126   1.47629   1.47514 
 H                    -7.47411   5.30813   3.1144 
 H                    -5.10459   5.64776   2.46039 
 H                    -8.91675   1.1358    3.6758 
 H                    -9.44589   1.47331   2.00155 
 H                    -10.43337   2.03132   3.38105 
 H                    -4.481    -7.42863   3.6546 
 H                    -3.62568  -6.18249   4.61132 
 H                    -3.02154  -7.86259   4.58726 
 H                     9.1394   -4.503     6.08933 
 H                     8.56209  -5.44059   4.68361 
 H                     7.51453  -5.24257   6.12043 
 H                     5.87462   8.03186   1.71355 
 H                     5.04394   7.20548   3.0646 
 H                     4.6714    8.9126    2.69573 
 O                    -3.94094   7.31995  -1.77045 
 H                    -4.64982   5.02582  -0.45293 
 H                    -1.75284   8.20742  -0.82396 
 O                    -0.20844   7.3915    1.03864 
 H                    -1.23224   5.10961   2.13639 
 H                     4.58649   0.34248  -1.81696 
 O                     6.77145  -0.81102  -2.97529 
 H                     8.30253   1.00547  -3.9081 
 O                     8.14071   3.54518  -3.95839 
 H                     5.81284   4.34318  -2.76743 
 O                     5.4199   -5.48114  -2.04215 
 H                     5.31212  -4.02339   0.0116 
 H                     2.94665  -6.46219  -2.62428 
 O                     0.6324   -5.99806  -1.27046 
 H                     1.06558  -4.47962   0.69636 
 H                    -5.11968  -0.83947  -1.93697 
 O                    -7.31328  -0.55096  -3.13564 
 H                    -8.52947  -2.9635   -3.46392 
 O                    -7.59585  -5.39515  -2.67432 
 H                    -5.34868  -5.14623  -1.56867 
 C                     7.97656   4.95281  -3.93101 
 C                     5.4019   -6.31031  -3.19241 
 C                    -8.8404   -5.46167  -3.34692 
 C                    -5.16715   6.76986  -2.22178 
 H                     8.86375   5.36646  -4.4149 
 H                     7.91259   5.33431  -2.90329 
 H                     7.08262   5.26863  -4.48542 
 H                     6.42966  -6.33436  -3.55936 
 H                     4.74811  -5.90365  -3.97547 
 H                     5.08107  -7.33206  -2.94926 
 H                    -9.11335  -6.5187   -3.368 
 H                    -8.76654  -5.08739  -4.37704 
 H                    -9.62053  -4.89907  -2.81604 
 H                    -5.51917   7.43465  -3.01326 
 H                    -5.91535   6.73349  -1.41891 
 H                    -5.03229   5.75987  -2.63142 
 C                     0.46908  -6.8848   -2.36573 
 H                    -0.58963  -7.14929  -2.37842 
 H                     1.06957  -7.79545  -2.24023 
 H                     0.73353  -6.40475  -3.3171 
 C                     5.86601  -1.74883  -2.41052 
 H                     6.29434  -2.73653  -2.58886 
 H                     4.87769  -1.69253  -2.88502 
 H                     5.75074  -1.59763  -1.32958 
 C                     0.48497   6.96991   2.20724 
 H                     1.34493   7.63416   2.29848 
 H                     0.84631   5.93886   2.11352 
 H                    -0.1541    7.05327   3.09621 
 C                    -8.57212  -0.46296  -3.77844 
 H                    -8.72992   0.59772  -3.9838 
 H                    -9.38385  -0.83057  -3.13587 
 H                    -8.58476  -1.01915  -4.72567 
 
 NAtoms=    177 NQM=    177 NQMF=      0 NMic=      0 NMicF=      0 NTot=    177.
                    Isotopes and Nuclear Properties:
 (Nuclear quadrupole moments (NQMom) in fm**2, nuclear magnetic moments (NMagM)
  in nuclear magnetons)

  Atom         1           2           3           4           5           6           7           8           9          10
 IAtWgt=          12          12          12          12          12          12          12          12          12          12
 AtmWgt=  12.0000000  12.0000000  12.0000000  12.0000000  12.0000000  12.0000000  12.0000000  12.0000000  12.0000000  12.0000000
 NucSpn=           0           0           0           0           0           0           0           0           0           0
 AtZEff=   0.0000000   0.0000000   0.0000000   0.0000000   0.0000000   0.0000000   0.0000000   0.0000000   0.0000000   0.0000000
 NQMom=    0.0000000   0.0000000   0.0000000   0.0000000   0.0000000   0.0000000   0.0000000   0.0000000   0.0000000   0.0000000
 NMagM=    0.0000000   0.0000000   0.0000000   0.0000000   0.0000000   0.0000000   0.0000000   0.0000000   0.0000000   0.0000000

  Atom        11          12          13          14          15          16          17          18          19          20
 IAtWgt=          12          12          12          12          12          12          12          12          12          12
 AtmWgt=  12.0000000  12.0000000  12.0000000  12.0000000  12.0000000  12.0000000  12.0000000  12.0000000  12.0000000  12.0000000
 NucSpn=           0           0           0           0           0           0           0           0           0           0
 AtZEff=   0.0000000   0.0000000   0.0000000   0.0000000   0.0000000   0.0000000   0.0000000   0.0000000   0.0000000   0.0000000
 NQMom=    0.0000000   0.0000000   0.0000000   0.0000000   0.0000000   0.0000000   0.0000000   0.0000000   0.0000000   0.0000000
 NMagM=    0.0000000   0.0000000   0.0000000   0.0000000   0.0000000   0.0000000   0.0000000   0.0000000   0.0000000   0.0000000

  Atom        21          22          23          24          25          26          27          28          29          30
 IAtWgt=          12          12          12          12          12          14          14          14          14          12
 AtmWgt=  12.0000000  12.0000000  12.0000000  12.0000000  12.0000000  14.0030740  14.0030740  14.0030740  14.0030740  12.0000000
 NucSpn=           0           0           0           0           0           2           2           2           2           0
 AtZEff=   0.0000000   0.0000000   0.0000000   0.0000000   0.0000000   0.0000000   0.0000000   0.0000000   0.0000000   0.0000000
 NQMom=    0.0000000   0.0000000   0.0000000   0.0000000   0.0000000   2.0440000   2.0440000   2.0440000   2.0440000   0.0000000
 NMagM=    0.0000000   0.0000000   0.0000000   0.0000000   0.0000000   0.4037610   0.4037610   0.4037610   0.4037610   0.0000000

  Atom        31          32          33          34          35          36          37          38          39          40
 IAtWgt=          12          12          12          12          12          12          12          12          12          12
 AtmWgt=  12.0000000  12.0000000  12.0000000  12.0000000  12.0000000  12.0000000  12.0000000  12.0000000  12.0000000  12.0000000
 NucSpn=           0           0           0           0           0           0           0           0           0           0
 AtZEff=   0.0000000   0.0000000   0.0000000   0.0000000   0.0000000   0.0000000   0.0000000   0.0000000   0.0000000   0.0000000
 NQMom=    0.0000000   0.0000000   0.0000000   0.0000000   0.0000000   0.0000000   0.0000000   0.0000000   0.0000000   0.0000000
 NMagM=    0.0000000   0.0000000   0.0000000   0.0000000   0.0000000   0.0000000   0.0000000   0.0000000   0.0000000   0.0000000

  Atom        41          42          43          44          45          46          47          48          49          50
 IAtWgt=          12          12          12          12          12          12          12          12          12          12
 AtmWgt=  12.0000000  12.0000000  12.0000000  12.0000000  12.0000000  12.0000000  12.0000000  12.0000000  12.0000000  12.0000000
 NucSpn=           0           0           0           0           0           0           0           0           0           0
 AtZEff=   0.0000000   0.0000000   0.0000000   0.0000000   0.0000000   0.0000000   0.0000000   0.0000000   0.0000000   0.0000000
 NQMom=    0.0000000   0.0000000   0.0000000   0.0000000   0.0000000   0.0000000   0.0000000   0.0000000   0.0000000   0.0000000
 NMagM=    0.0000000   0.0000000   0.0000000   0.0000000   0.0000000   0.0000000   0.0000000   0.0000000   0.0000000   0.0000000

  Atom        51          52          53          54          55          56          57          58          59          60
 IAtWgt=          12          12          12          12          12          12          12          12          12          12
 AtmWgt=  12.0000000  12.0000000  12.0000000  12.0000000  12.0000000  12.0000000  12.0000000  12.0000000  12.0000000  12.0000000
 NucSpn=           0           0           0           0           0           0           0           0           0           0
 AtZEff=   0.0000000   0.0000000   0.0000000   0.0000000   0.0000000   0.0000000   0.0000000   0.0000000   0.0000000   0.0000000
 NQMom=    0.0000000   0.0000000   0.0000000   0.0000000   0.0000000   0.0000000   0.0000000   0.0000000   0.0000000   0.0000000
 NMagM=    0.0000000   0.0000000   0.0000000   0.0000000   0.0000000   0.0000000   0.0000000   0.0000000   0.0000000   0.0000000

  Atom        61          62          63          64          65          66          67          68          69          70
 IAtWgt=          12          12          12          12          12          12          12          12          12          12
 AtmWgt=  12.0000000  12.0000000  12.0000000  12.0000000  12.0000000  12.0000000  12.0000000  12.0000000  12.0000000  12.0000000
 NucSpn=           0           0           0           0           0           0           0           0           0           0
 AtZEff=   0.0000000   0.0000000   0.0000000   0.0000000   0.0000000   0.0000000   0.0000000   0.0000000   0.0000000   0.0000000
 NQMom=    0.0000000   0.0000000   0.0000000   0.0000000   0.0000000   0.0000000   0.0000000   0.0000000   0.0000000   0.0000000
 NMagM=    0.0000000   0.0000000   0.0000000   0.0000000   0.0000000   0.0000000   0.0000000   0.0000000   0.0000000   0.0000000

  Atom        71          72          73          74          75          76          77          78          79          80
 IAtWgt=          12          12          12          12          12          12          12           1           1           1
 AtmWgt=  12.0000000  12.0000000  12.0000000  12.0000000  12.0000000  12.0000000  12.0000000   1.0078250   1.0078250   1.0078250
 NucSpn=           0           0           0           0           0           0           0           1           1           1
 AtZEff=   0.0000000   0.0000000   0.0000000   0.0000000   0.0000000   0.0000000   0.0000000   0.0000000   0.0000000   0.0000000
 NQMom=    0.0000000   0.0000000   0.0000000   0.0000000   0.0000000   0.0000000   0.0000000   0.0000000   0.0000000   0.0000000
 NMagM=    0.0000000   0.0000000   0.0000000   0.0000000   0.0000000   0.0000000   0.0000000   2.7928460   2.7928460   2.7928460

  Atom        81          82          83          84          85          86          87          88          89          90
 IAtWgt=           1           1           1           1           1           1           1           1           1          16
 AtmWgt=   1.0078250   1.0078250   1.0078250   1.0078250   1.0078250   1.0078250   1.0078250   1.0078250   1.0078250  15.9949146
 NucSpn=           1           1           1           1           1           1           1           1           1           0
 AtZEff=   0.0000000   0.0000000   0.0000000   0.0000000   0.0000000   0.0000000   0.0000000   0.0000000   0.0000000   0.0000000
 NQMom=    0.0000000   0.0000000   0.0000000   0.0000000   0.0000000   0.0000000   0.0000000   0.0000000   0.0000000   0.0000000
 NMagM=    2.7928460   2.7928460   2.7928460   2.7928460   2.7928460   2.7928460   2.7928460   2.7928460   2.7928460   0.0000000

  Atom        91          92          93          94          95          96          97          98          99         100
 IAtWgt=          12          16          12          16          16          12          12           1           1           1
 AtmWgt=  12.0000000  15.9949146  12.0000000  15.9949146  15.9949146  12.0000000  12.0000000   1.0078250   1.0078250   1.0078250
 NucSpn=           0           0           0           0           0           0           0           1           1           1
 AtZEff=   0.0000000   0.0000000   0.0000000   0.0000000   0.0000000   0.0000000   0.0000000   0.0000000   0.0000000   0.0000000
 NQMom=    0.0000000   0.0000000   0.0000000   0.0000000   0.0000000   0.0000000   0.0000000   0.0000000   0.0000000   0.0000000
 NMagM=    0.0000000   0.0000000   0.0000000   0.0000000   0.0000000   0.0000000   0.0000000   2.7928460   2.7928460   2.7928460

  Atom       101         102         103         104         105         106         107         108         109         110
 IAtWgt=           1           1           1           1           1           1           1           1           1           1
 AtmWgt=   1.0078250   1.0078250   1.0078250   1.0078250   1.0078250   1.0078250   1.0078250   1.0078250   1.0078250   1.0078250
 NucSpn=           1           1           1           1           1           1           1           1           1           1
 AtZEff=   0.0000000   0.0000000   0.0000000   0.0000000   0.0000000   0.0000000   0.0000000   0.0000000   0.0000000   0.0000000
 NQMom=    0.0000000   0.0000000   0.0000000   0.0000000   0.0000000   0.0000000   0.0000000   0.0000000   0.0000000   0.0000000
 NMagM=    2.7928460   2.7928460   2.7928460   2.7928460   2.7928460   2.7928460   2.7928460   2.7928460   2.7928460   2.7928460

  Atom       111         112         113         114         115         116         117         118         119         120
 IAtWgt=           1           1           1           1           1           1           1           1           1           1
 AtmWgt=   1.0078250   1.0078250   1.0078250   1.0078250   1.0078250   1.0078250   1.0078250   1.0078250   1.0078250   1.0078250
 NucSpn=           1           1           1           1           1           1           1           1           1           1
 AtZEff=   0.0000000   0.0000000   0.0000000   0.0000000   0.0000000   0.0000000   0.0000000   0.0000000   0.0000000   0.0000000
 NQMom=    0.0000000   0.0000000   0.0000000   0.0000000   0.0000000   0.0000000   0.0000000   0.0000000   0.0000000   0.0000000
 NMagM=    2.7928460   2.7928460   2.7928460   2.7928460   2.7928460   2.7928460   2.7928460   2.7928460   2.7928460   2.7928460

  Atom       121         122         123         124         125         126         127         128         129         130
 IAtWgt=           1           1           1           1           1          16           1           1          16           1
 AtmWgt=   1.0078250   1.0078250   1.0078250   1.0078250   1.0078250  15.9949146   1.0078250   1.0078250  15.9949146   1.0078250
 NucSpn=           1           1           1           1           1           0           1           1           0           1
 AtZEff=   0.0000000   0.0000000   0.0000000   0.0000000   0.0000000   0.0000000   0.0000000   0.0000000   0.0000000   0.0000000
 NQMom=    0.0000000   0.0000000   0.0000000   0.0000000   0.0000000   0.0000000   0.0000000   0.0000000   0.0000000   0.0000000
 NMagM=    2.7928460   2.7928460   2.7928460   2.7928460   2.7928460   0.0000000   2.7928460   2.7928460   0.0000000   2.7928460

  Atom       131         132         133         134         135         136         137         138         139         140
 IAtWgt=           1          16           1          16           1          16           1           1          16           1
 AtmWgt=   1.0078250  15.9949146   1.0078250  15.9949146   1.0078250  15.9949146   1.0078250   1.0078250  15.9949146   1.0078250
 NucSpn=           1           0           1           0           1           0           1           1           0           1
 AtZEff=   0.0000000   0.0000000   0.0000000   0.0000000   0.0000000   0.0000000   0.0000000   0.0000000   0.0000000   0.0000000
 NQMom=    0.0000000   0.0000000   0.0000000   0.0000000   0.0000000   0.0000000   0.0000000   0.0000000   0.0000000   0.0000000
 NMagM=    2.7928460   0.0000000   2.7928460   0.0000000   2.7928460   0.0000000   2.7928460   2.7928460   0.0000000   2.7928460

  Atom       141         142         143         144         145         146         147         148         149         150
 IAtWgt=           1          16           1          16           1          12          12          12          12           1
 AtmWgt=   1.0078250  15.9949146   1.0078250  15.9949146   1.0078250  12.0000000  12.0000000  12.0000000  12.0000000   1.0078250
 NucSpn=           1           0           1           0           1           0           0           0           0           1
 AtZEff=   0.0000000   0.0000000   0.0000000   0.0000000   0.0000000   0.0000000   0.0000000   0.0000000   0.0000000   0.0000000
 NQMom=    0.0000000   0.0000000   0.0000000   0.0000000   0.0000000   0.0000000   0.0000000   0.0000000   0.0000000   0.0000000
 NMagM=    2.7928460   0.0000000   2.7928460   0.0000000   2.7928460   0.0000000   0.0000000   0.0000000   0.0000000   2.7928460

  Atom       151         152         153         154         155         156         157         158         159         160
 IAtWgt=           1           1           1           1           1           1           1           1           1           1
 AtmWgt=   1.0078250   1.0078250   1.0078250   1.0078250   1.0078250   1.0078250   1.0078250   1.0078250   1.0078250   1.0078250
 NucSpn=           1           1           1           1           1           1           1           1           1           1
 AtZEff=   0.0000000   0.0000000   0.0000000   0.0000000   0.0000000   0.0000000   0.0000000   0.0000000   0.0000000   0.0000000
 NQMom=    0.0000000   0.0000000   0.0000000   0.0000000   0.0000000   0.0000000   0.0000000   0.0000000   0.0000000   0.0000000
 NMagM=    2.7928460   2.7928460   2.7928460   2.7928460   2.7928460   2.7928460   2.7928460   2.7928460   2.7928460   2.7928460

  Atom       161         162         163         164         165         166         167         168         169         170
 IAtWgt=           1          12           1           1           1          12           1           1           1          12
 AtmWgt=   1.0078250  12.0000000   1.0078250   1.0078250   1.0078250  12.0000000   1.0078250   1.0078250   1.0078250  12.0000000
 NucSpn=           1           0           1           1           1           0           1           1           1           0
 AtZEff=   0.0000000   0.0000000   0.0000000   0.0000000   0.0000000   0.0000000   0.0000000   0.0000000   0.0000000   0.0000000
 NQMom=    0.0000000   0.0000000   0.0000000   0.0000000   0.0000000   0.0000000   0.0000000   0.0000000   0.0000000   0.0000000
 NMagM=    2.7928460   0.0000000   2.7928460   2.7928460   2.7928460   0.0000000   2.7928460   2.7928460   2.7928460   0.0000000

  Atom       171         172         173         174         175         176         177
 IAtWgt=           1           1           1          12           1           1           1
 AtmWgt=   1.0078250   1.0078250   1.0078250  12.0000000   1.0078250   1.0078250   1.0078250
 NucSpn=           1           1           1           0           1           1           1
 AtZEff=   0.0000000   0.0000000   0.0000000   0.0000000   0.0000000   0.0000000   0.0000000
 NQMom=    0.0000000   0.0000000   0.0000000   0.0000000   0.0000000   0.0000000   0.0000000
 NMagM=    2.7928460   2.7928460   2.7928460   0.0000000   2.7928460   2.7928460   2.7928460
 Leave Link  101 at Tue Jan 27 17:10:06 2015, MaxMem= 2147483648 cpu:       4.2
 (Enter /opt/g09/l202.exe)
 Stoichiometry    C85H76N4O12(1+,2)
 Framework group  C1[X(C85H76N4O12)]
 Deg. of freedom   525
 Full point group                 C1      NOp   1
 Largest Abelian subgroup         C1      NOp   1
 Largest concise Abelian subgroup C1      NOp   1
                         Standard orientation:                         
 ---------------------------------------------------------------------
 Center     Atomic      Atomic             Coordinates (Angstroms)
 Number     Number       Type             X           Y           Z
 ---------------------------------------------------------------------
      1          6           0       -0.059352    0.221691    0.141608
      2          6           0       -0.847829    1.120118    1.104247
      3          6           0       -0.631856    0.719130    2.438920
      4          6           0        0.362018   -0.356917    2.452526
      5          6           0        0.724379   -0.654543    1.124824
      6          6           0       -1.005466   -0.587244   -0.762209
      7          6           0       -0.731401   -0.330294   -2.117810
      8          6           0        0.410540    0.580811   -2.202810
      9          6           0        0.819124    0.926423   -0.898047
     10          6           0       -2.021671   -1.451600   -0.385547
     11          6           0       -2.787451   -2.087106   -1.380810
     12          6           0       -2.514760   -1.826159   -2.737458
     13          6           0       -1.498856   -0.949310   -3.107878
     14          6           0        0.963335   -1.055782    3.501856
     15          6           0        1.913562   -2.034273    3.219102
     16          6           0        2.289783   -2.319182    1.892113
     17          6           0        1.679708   -1.614601    0.835952
     18          6           0       -1.747561    2.130620    0.799560
     19          6           0       -2.467323    2.744752    1.840040
     20          6           0       -2.261841    2.335344    3.168525
     21          6           0       -1.345349    1.330233    3.473449
     22          6           0        1.123024    1.054852   -3.306788
     23          6           0        2.252667    1.841035   -3.099030
     24          6           0        2.683509    2.160021   -1.799041
     25          6           0        1.942203    1.715718   -0.688466
     26          7           0       -3.809234   -3.004052   -1.014873
     27          7           0        3.290727   -3.288180    1.627293
     28          7           0       -3.419256    3.764871    1.541965
     29          7           0        3.897028    2.886058   -1.624842
     30          6           0        5.082277    2.392055   -2.231559
     31          6           0       -2.981515    4.953188    0.901191
     32          6           0        3.910764    4.069868   -0.840859
     33          6           0       -4.776270    3.583871    1.915164
     34          6           0       -3.532402   -3.972306   -0.002705
     35          6           0       -5.064004   -2.994914   -1.669245
     36          6           0        4.431193   -3.373654    2.480235
     37          6           0        3.199005   -4.135794    0.494509
     38          6           0        4.858213   -4.608311    2.978539
     39          6           0        5.981551   -4.704138    3.802651
     40          6           0        6.683825   -3.547660    4.160332
     41          6           0        6.254508   -2.303960    3.673293
     42          6           0        5.150624   -2.220069    2.836612
     43          6           0       -4.422052   -4.178174    1.055985
     44          6           0       -4.161565   -5.133840    2.040883
     45          6           0       -2.982082   -5.885187    1.987902
     46          6           0       -2.078422   -5.674885    0.935800
     47          6           0       -2.354614   -4.737350   -0.049872
     48          6           0       -5.758925   -4.194513   -1.882604
     49          6           0       -7.001876   -4.172081   -2.516811
     50          6           0       -7.570269   -2.972193   -2.967025
     51          6           0       -6.858564   -1.783283   -2.752369
     52          6           0       -5.624112   -1.783577   -2.101743
     53          6           0        4.345360   -4.432613   -0.255403
     54          6           0        4.246861   -5.269623   -1.368334
     55          6           0        3.017786   -5.819905   -1.758536
     56          6           0        1.882563   -5.510587   -0.995684
     57          6           0        1.963252   -4.683792    0.125167
     58          6           0       -1.787295    5.554457    1.321709
     59          6           0       -1.349784    6.724235    0.689877
     60          6           0       -2.091618    7.295933   -0.345532
     61          6           0       -3.284298    6.690291   -0.749777
     62          6           0       -3.737803    5.515626   -0.138404
     63          6           0       -5.376736    2.320806    1.840560
     64          6           0       -6.703851    2.125792    2.230552
     65          6           0       -7.466116    3.206671    2.683547
     66          6           0       -6.876368    4.477101    2.752254
     67          6           0       -5.550800    4.661423    2.385780
     68          6           0        2.857419    4.997461   -0.929648
     69          6           0        2.864671    6.159876   -0.170307
     70          6           0        3.935660    6.435424    0.691770
     71          6           0        4.991252    5.522785    0.788384
     72          6           0        4.967232    4.346976    0.035624
     73          6           0        5.307983    1.007785   -2.270729
     74          6           0        6.465365    0.516936   -2.886766
     75          6           0        7.403577    1.390669   -3.441435
     76          6           0        7.172646    2.767077   -3.385153
     77          6           0        6.012618    3.280456   -2.793198
     78          1           0        2.282495    1.956904    0.314406
     79          1           0       -1.926037    2.438258   -0.226730
     80          1           0       -2.831075    2.817013    3.957981
     81          1           0       -1.193604    1.030084    4.507214
     82          1           0        0.694544   -0.850736    4.535080
     83          1           0        2.379618   -2.586257    4.028618
     84          1           0        0.814011    0.805110   -4.318583
     85          1           0        2.832404    2.201782   -3.942961
     86          1           0       -1.299919   -0.769080   -4.161350
     87          1           0       -3.107082   -2.323802   -3.498286
     88          1           0        1.967153   -1.822051   -0.189571
     89          1           0       -2.232334   -1.646945    0.661384
     90          8           0        3.854229    7.611117    1.394722
     91          6           0        4.925908    7.944358    2.260151
     92          8           0       -8.775707    3.132608    3.079137
     93          6           0       -9.413565    1.869348    3.025897
     94          8           0        7.786419   -3.521822    4.967312
     95          8           0       -2.623913   -6.839345    2.900083
     96          6           0       -3.495094   -7.079848    3.991334
     97          6           0        8.264526   -4.751613    5.485594
     98          1           0        6.813650   -1.416215    3.952059
     99          1           0        4.833331   -1.254741    2.454448
    100          1           0       -5.334227   -3.591665    1.107238
    101          1           0       -4.876565   -5.270334    2.844192
    102          1           0        6.286390   -5.678778    4.166365
    103          1           0        4.309243   -5.506914    2.714377
    104          1           0       -1.168550   -6.264590    0.892405
    105          1           0       -1.646087   -4.594143   -0.859214
    106          1           0        5.785549    3.639870    0.125719
    107          1           0        5.828662    5.702076    1.453469
    108          1           0        2.046264    6.869686   -0.237665
    109          1           0        2.028209    4.802096   -1.602312
    110          1           0       -7.129012    1.131003    2.159104
    111          1           0       -4.801259    1.476287    1.475142
    112          1           0       -7.474106    5.308130    3.114404
    113          1           0       -5.104592    5.647759    2.460387
    114          1           0       -8.916745    1.135802    3.675796
    115          1           0       -9.445893    1.473314    2.001553
    116          1           0      -10.433374    2.031317    3.381047
    117          1           0       -4.481000   -7.428634    3.654599
    118          1           0       -3.625678   -6.182490    4.611324
    119          1           0       -3.021540   -7.862585    4.587258
    120          1           0        9.139402   -4.503005    6.089328
    121          1           0        8.562095   -5.440590    4.683612
    122          1           0        7.514530   -5.242572    6.120427
    123          1           0        5.874615    8.031858    1.713552
    124          1           0        5.043938    7.205482    3.064598
    125          1           0        4.671404    8.912597    2.695732
    126          8           0       -3.940942    7.319946   -1.770452
    127          1           0       -4.649820    5.025820   -0.452928
    128          1           0       -1.752842    8.207417   -0.823955
    129          8           0       -0.208440    7.391497    1.038636
    130          1           0       -1.232244    5.109615    2.136387
    131          1           0        4.586488    0.342476   -1.816955
    132          8           0        6.771448   -0.811023   -2.975288
    133          1           0        8.302532    1.005470   -3.908095
    134          8           0        8.140707    3.545181   -3.958387
    135          1           0        5.812838    4.343177   -2.767425
    136          8           0        5.419903   -5.481138   -2.042153
    137          1           0        5.312125   -4.023386    0.011601
    138          1           0        2.946653   -6.462189   -2.624280
    139          8           0        0.632401   -5.998060   -1.270461
    140          1           0        1.065583   -4.479617    0.696364
    141          1           0       -5.119681   -0.839469   -1.936971
    142          8           0       -7.313281   -0.550957   -3.135643
    143          1           0       -8.529466   -2.963499   -3.463921
    144          8           0       -7.595850   -5.395150   -2.674323
    145          1           0       -5.348683   -5.146229   -1.568668
    146          6           0        7.976557    4.952814   -3.931012
    147          6           0        5.401898   -6.310310   -3.192413
    148          6           0       -8.840403   -5.461668   -3.346915
    149          6           0       -5.167153    6.769857   -2.221782
    150          1           0        8.863752    5.366457   -4.414900
    151          1           0        7.912594    5.334305   -2.903288
    152          1           0        7.082618    5.268629   -4.485423
    153          1           0        6.429662   -6.334359   -3.559358
    154          1           0        4.748110   -5.903652   -3.975473
    155          1           0        5.081069   -7.332056   -2.949258
    156          1           0       -9.113351   -6.518696   -3.367996
    157          1           0       -8.766539   -5.087386   -4.377041
    158          1           0       -9.620529   -4.899069   -2.816042
    159          1           0       -5.519168    7.434650   -3.013261
    160          1           0       -5.915351    6.733487   -1.418914
    161          1           0       -5.032291    5.759874   -2.631416
    162          6           0        0.469076   -6.884799   -2.365733
    163          1           0       -0.589628   -7.149288   -2.378418
    164          1           0        1.069567   -7.795450   -2.240225
    165          1           0        0.733530   -6.404752   -3.317101
    166          6           0        5.866005   -1.748831   -2.410516
    167          1           0        6.294338   -2.736531   -2.588863
    168          1           0        4.877693   -1.692534   -2.885016
    169          1           0        5.750741   -1.597625   -1.329582
    170          6           0        0.484965    6.969911    2.207241
    171          1           0        1.344931    7.634160    2.298476
    172          1           0        0.846309    5.938859    2.113524
    173          1           0       -0.154095    7.053270    3.096208
    174          6           0       -8.572118   -0.462962   -3.778437
    175          1           0       -8.729922    0.597722   -3.983804
    176          1           0       -9.383854   -0.830566   -3.135868
    177          1           0       -8.584764   -1.019148   -4.725671
 ---------------------------------------------------------------------
 Rotational constants (GHZ):      0.0156142      0.0130242      0.0091346
 Leave Link  202 at Tue Jan 27 17:10:06 2015, MaxMem= 2147483648 cpu:       0.5
 (Enter /opt/g09/l301.exe)
 Standard basis: CC-pVDZ (5D, 7F)
 Ernie: Thresh=  0.10000D-02 Tol=  0.10000D-05 Strict=F.
 Ernie:  202 primitive shells out of 2602 were deleted.
 There are  1794 symmetry adapted basis functions of A   symmetry.
 Integral buffers will be    131072 words long.
 Raffenetti 2 integral format.
 Two-electron integral symmetry is turned on.
  1794 basis functions,  3865 primitive gaussians,  1895 cartesian basis functions
   355 alpha electrons      354 beta electrons
       nuclear repulsion energy     19258.2986518568 Hartrees.
 IExCor=  402 DFT=T Ex+Corr=B3LYP ExCW=0 ScaHFX=  0.200000
 ScaDFX=  0.800000  0.720000  1.000000  0.810000 ScalE2=  1.000000  1.000000
 IRadAn=      0 IRanWt=     -1 IRanGd=            0 ICorTp=0
 NAtoms=  177 NActive=  177 NUniq=  177 SFac= 7.50D-01 NAtFMM=   80 NAOKFM=T Big=T
 Leave Link  301 at Tue Jan 27 17:10:06 2015, MaxMem= 2147483648 cpu:       1.4
 (Enter /opt/g09/l302.exe)
 NPDir=0 NMtPBC=     1 NCelOv=     1 NCel=       1 NClECP=     1 NCelD=      1
         NCelK=      1 NCelE2=     1 NClLst=     1 CellRange=     0.0.
 One-electron integrals computed using PRISM.
 NBasis=  1794 RedAO= T  NBF=  1794
 NBsUse=  1794 1.00D-06 NBFU=  1794
 Precomputing XC quadrature grid using
 IXCGrd= 2 IRadAn=           0 IRanWt=          -1 IRanGd=           0 AccXCQ= 1.00D-10.
 NRdTot=   11600 NPtTot=     1487288 NUsed=     1570802 NTot=     1570834
 NSgBfM=  1347  1352  1356  1359  1359 NAtAll=   177   171.
 Leave Link  302 at Tue Jan 27 17:10:33 2015, MaxMem= 2147483648 cpu:     647.0
 (Enter /opt/g09/l303.exe)
 DipDrv:  MaxL=1.
 Leave Link  303 at Tue Jan 27 17:10:35 2015, MaxMem= 2147483648 cpu:      43.9
 (Enter /opt/g09/l401.exe)
 Harris functional with IExCor=  402 diagonalized for initial guess.
 ExpMin= 1.22D-01 ExpMax= 1.17D+04 ExpMxC= 4.01D+02 IAcc=1 IRadAn=         1 AccDes= 0.00D+00
 HarFok:  IExCor=  402 AccDes= 0.00D+00 IRadAn=         1 IDoV= 1
 ScaDFX=  1.000000  1.000000  1.000000  1.000000
 FoFCou: FMM=F IPFlag=           0 FMFlag=      100000 FMFlg1=        2001
         NFxFlg=           0 DoJE=T BraDBF=F KetDBF=T FulRan=T
         Omega=  0.000000  0.000000  1.000000  0.000000  0.000000 ICntrl=     500 IOpCl=  0
         NMat0=    1 NMatS0=    1 NMatT0=    0 NMatD0=    1 NMtDS0=    0 NMtDT0=    0
         I1Cent=           4 NGrid=           0.
 Petite list used in FoFCou.
 Harris En= -4406.51946548226    
 Initial guess orbital symmetries:
 Alpha Orbitals:
       Occupied  (A) (A) (A) (A) (A) (A) (A) (A) (A) (A) (A) (A)
                 (A) (A) (A) (A) (A) (A) (A) (A) (A) (A) (A) (A)
                 (A) (A) (A) (A) (A) (A) (A) (A) (A) (A) (A) (A)
                 (A) (A) (A) (A) (A) (A) (A) (A) (A) (A) (A) (A)
                 (A) (A) (A) (A) (A) (A) (A) (A) (A) (A) (A) (A)
                 (A) (A) (A) (A) (A) (A) (A) (A) (A) (A) (A) (A)
                 (A) (A) (A) (A) (A) (A) (A) (A) (A) (A) (A) (A)
                 (A) (A) (A) (A) (A) (A) (A) (A) (A) (A) (A) (A)
                 (A) (A) (A) (A) (A) (A) (A) (A) (A) (A) (A) (A)
                 (A) (A) (A) (A) (A) (A) (A) (A) (A) (A) (A) (A)
                 (A) (A) (A) (A) (A) (A) (A) (A) (A) (A) (A) (A)
                 (A) (A) (A) (A) (A) (A) (A) (A) (A) (A) (A) (A)
                 (A) (A) (A) (A) (A) (A) (A) (A) (A) (A) (A) (A)
                 (A) (A) (A) (A) (A) (A) (A) (A) (A) (A) (A) (A)
                 (A) (A) (A) (A) (A) (A) (A) (A) (A) (A) (A) (A)
                 (A) (A) (A) (A) (A) (A) (A) (A) (A) (A) (A) (A)
                 (A) (A) (A) (A) (A) (A) (A) (A) (A) (A) (A) (A)
                 (A) (A) (A) (A) (A) (A) (A) (A) (A) (A) (A) (A)
                 (A) (A) (A) (A) (A) (A) (A) (A) (A) (A) (A) (A)
                 (A) (A) (A) (A) (A) (A) (A) (A) (A) (A) (A) (A)
                 (A) (A) (A) (A) (A) (A) (A) (A) (A) (A) (A) (A)
                 (A) (A) (A) (A) (A) (A) (A) (A) (A) (A) (A) (A)
                 (A) (A) (A) (A) (A) (A) (A) (A) (A) (A) (A) (A)
                 (A) (A) (A) (A) (A) (A) (A) (A) (A) (A) (A) (A)
                 (A) (A) (A) (A) (A) (A) (A) (A) (A) (A) (A) (A)
                 (A) (A) (A) (A) (A) (A) (A) (A) (A) (A) (A) (A)
                 (A) (A) (A) (A) (A) (A) (A) (A) (A) (A) (A) (A)
                 (A) (A) (A) (A) (A) (A) (A) (A) (A) (A) (A) (A)
                 (A) (A) (A) (A) (A) (A) (A) (A) (A) (A) (A) (A)
                 (A) (A) (A) (A) (A) (A) (A)
       Virtual   (A) (A) (A) (A) (A) (A) (A) (A) (A) (A) (A) (A)
                 (A) (A) (A) (A) (A) (A) (A) (A) (A) (A) (A) (A)
                 (A) (A) (A) (A) (A) (A) (A) (A) (A) (A) (A) (A)
                 (A) (A) (A) (A) (A) (A) (A) (A) (A) (A) (A) (A)
                 (A) (A) (A) (A) (A) (A) (A) (A) (A) (A) (A) (A)
                 (A) (A) (A) (A) (A) (A) (A) (A) (A) (A) (A) (A)
                 (A) (A) (A) (A) (A) (A) (A) (A) (A) (A) (A) (A)
                 (A) (A) (A) (A) (A) (A) (A) (A) (A) (A) (A) (A)
                 (A) (A) (A) (A) (A) (A) (A) (A) (A) (A) (A) (A)
                 (A) (A) (A) (A) (A) (A) (A) (A) (A) (A) (A) (A)
                 (A) (A) (A) (A) (A) (A) (A) (A) (A) (A) (A) (A)
                 (A) (A) (A) (A) (A) (A) (A) (A) (A) (A) (A) (A)
                 (A) (A) (A) (A) (A) (A) (A) (A) (A) (A) (A) (A)
                 (A) (A) (A) (A) (A) (A) (A) (A) (A) (A) (A) (A)
                 (A) (A) (A) (A) (A) (A) (A) (A) (A) (A) (A) (A)
                 (A) (A) (A) (A) (A) (A) (A) (A) (A) (A) (A) (A)
                 (A) (A) (A) (A) (A) (A) (A) (A) (A) (A) (A) (A)
                 (A) (A) (A) (A) (A) (A) (A) (A) (A) (A) (A) (A)
                 (A) (A) (A) (A) (A) (A) (A) (A) (A) (A) (A) (A)
                 (A) (A) (A) (A) (A) (A) (A) (A) (A) (A) (A) (A)
                 (A) (A) (A) (A) (A) (A) (A) (A) (A) (A) (A) (A)
                 (A) (A) (A) (A) (A) (A) (A) (A) (A) (A) (A) (A)
                 (A) (A) (A) (A) (A) (A) (A) (A) (A) (A) (A) (A)
                 (A) (A) (A) (A) (A) (A) (A) (A) (A) (A) (A) (A)
                 (A) (A) (A) (A) (A) (A) (A) (A) (A) (A) (A) (A)
                 (A) (A) (A) (A) (A) (A) (A) (A) (A) (A) (A) (A)
                 (A) (A) (A) (A) (A) (A) (A) (A) (A) (A) (A) (A)
                 (A) (A) (A) (A) (A) (A) (A) (A) (A) (A) (A) (A)
                 (A) (A) (A) (A) (A) (A) (A) (A) (A) (A) (A) (A)
                 (A) (A) (A) (A) (A) (A) (A) (A) (A) (A) (A) (A)
                 (A) (A) (A) (A) (A) (A) (A) (A) (A) (A) (A) (A)
                 (A) (A) (A) (A) (A) (A) (A) (A) (A) (A) (A) (A)
                 (A) (A) (A) (A) (A) (A) (A) (A) (A) (A) (A) (A)
                 (A) (A) (A) (A) (A) (A) (A) (A) (A) (A) (A) (A)
                 (A) (A) (A) (A) (A) (A) (A) (A) (A) (A) (A) (A)
                 (A) (A) (A) (A) (A) (A) (A) (A) (A) (A) (A) (A)
                 (A) (A) (A) (A) (A) (A) (A) (A) (A) (A) (A) (A)
                 (A) (A) (A) (A) (A) (A) (A) (A) (A) (A) (A) (A)
                 (A) (A) (A) (A) (A) (A) (A) (A) (A) (A) (A) (A)
                 (A) (A) (A) (A) (A) (A) (A) (A) (A) (A) (A) (A)
                 (A) (A) (A) (A) (A) (A) (A) (A) (A) (A) (A) (A)
                 (A) (A) (A) (A) (A) (A) (A) (A) (A) (A) (A) (A)
                 (A) (A) (A) (A) (A) (A) (A) (A) (A) (A) (A) (A)
                 (A) (A) (A) (A) (A) (A) (A) (A) (A) (A) (A) (A)
                 (A) (A) (A) (A) (A) (A) (A) (A) (A) (A) (A) (A)
                 (A) (A) (A) (A) (A) (A) (A) (A) (A) (A) (A) (A)
                 (A) (A) (A) (A) (A) (A) (A) (A) (A) (A) (A) (A)
                 (A) (A) (A) (A) (A) (A) (A) (A) (A) (A) (A) (A)
                 (A) (A) (A) (A) (A) (A) (A) (A) (A) (A) (A) (A)
                 (A) (A) (A) (A) (A) (A) (A) (A) (A) (A) (A) (A)
                 (A) (A) (A) (A) (A) (A) (A) (A) (A) (A) (A) (A)
                 (A) (A) (A) (A) (A) (A) (A) (A) (A) (A) (A) (A)
                 (A) (A) (A) (A) (A) (A) (A) (A) (A) (A) (A) (A)
                 (A) (A) (A) (A) (A) (A) (A) (A) (A) (A) (A) (A)
                 (A) (A) (A) (A) (A) (A) (A) (A) (A) (A) (A) (A)
                 (A) (A) (A) (A) (A) (A) (A) (A) (A) (A) (A) (A)
                 (A) (A) (A) (A) (A) (A) (A) (A) (A) (A) (A) (A)
                 (A) (A) (A) (A) (A) (A) (A) (A) (A) (A) (A) (A)
                 (A) (A) (A) (A) (A) (A) (A) (A) (A) (A) (A) (A)
                 (A) (A) (A) (A) (A) (A) (A) (A) (A) (A) (A) (A)
                 (A) (A) (A) (A) (A) (A) (A) (A) (A) (A) (A) (A)
                 (A) (A) (A) (A) (A) (A) (A) (A) (A) (A) (A) (A)
                 (A) (A) (A) (A) (A) (A) (A) (A) (A) (A) (A) (A)
                 (A) (A) (A) (A) (A) (A) (A) (A) (A) (A) (A) (A)
                 (A) (A) (A) (A) (A) (A) (A) (A) (A) (A) (A) (A)
                 (A) (A) (A) (A) (A) (A) (A) (A) (A) (A) (A) (A)
                 (A) (A) (A) (A) (A) (A) (A) (A) (A) (A) (A) (A)
                 (A) (A) (A) (A) (A) (A) (A) (A) (A) (A) (A) (A)
                 (A) (A) (A) (A) (A) (A) (A) (A) (A) (A) (A) (A)
                 (A) (A) (A) (A) (A) (A) (A) (A) (A) (A) (A) (A)
                 (A) (A) (A) (A) (A) (A) (A) (A) (A) (A) (A) (A)
                 (A) (A) (A) (A) (A) (A) (A) (A) (A) (A) (A) (A)
                 (A) (A) (A) (A) (A) (A) (A) (A) (A) (A) (A) (A)
                 (A) (A) (A) (A) (A) (A) (A) (A) (A) (A) (A) (A)
                 (A) (A) (A) (A) (A) (A) (A) (A) (A) (A) (A) (A)
                 (A) (A) (A) (A) (A) (A) (A) (A) (A) (A) (A) (A)
                 (A) (A) (A) (A) (A) (A) (A) (A) (A) (A) (A) (A)
                 (A) (A) (A) (A) (A) (A) (A) (A) (A) (A) (A) (A)
                 (A) (A) (A) (A) (A) (A) (A) (A) (A) (A) (A) (A)
                 (A) (A) (A) (A) (A) (A) (A) (A) (A) (A) (A) (A)
                 (A) (A) (A) (A) (A) (A) (A) (A) (A) (A) (A) (A)
                 (A) (A) (A) (A) (A) (A) (A) (A) (A) (A) (A) (A)
                 (A) (A) (A) (A) (A) (A) (A) (A) (A) (A) (A) (A)
                 (A) (A) (A) (A) (A) (A) (A) (A) (A) (A) (A) (A)
                 (A) (A) (A) (A) (A) (A) (A) (A) (A) (A) (A) (A)
                 (A) (A) (A) (A) (A) (A) (A) (A) (A) (A) (A) (A)
                 (A) (A) (A) (A) (A) (A) (A) (A) (A) (A) (A) (A)
                 (A) (A) (A) (A) (A) (A) (A) (A) (A) (A) (A) (A)
                 (A) (A) (A) (A) (A) (A) (A) (A) (A) (A) (A) (A)
                 (A) (A) (A) (A) (A) (A) (A) (A) (A) (A) (A) (A)
                 (A) (A) (A) (A) (A) (A) (A) (A) (A) (A) (A) (A)
                 (A) (A) (A) (A) (A) (A) (A) (A) (A) (A) (A) (A)
                 (A) (A) (A) (A) (A) (A) (A) (A) (A) (A) (A) (A)
                 (A) (A) (A) (A) (A) (A) (A) (A) (A) (A) (A) (A)
                 (A) (A) (A) (A) (A) (A) (A) (A) (A) (A) (A) (A)
                 (A) (A) (A) (A) (A) (A) (A) (A) (A) (A) (A) (A)
                 (A) (A) (A) (A) (A) (A) (A) (A) (A) (A) (A) (A)
                 (A) (A) (A) (A) (A) (A) (A) (A) (A) (A) (A) (A)
                 (A) (A) (A) (A) (A) (A) (A) (A) (A) (A) (A) (A)
                 (A) (A) (A) (A) (A) (A) (A) (A) (A) (A) (A) (A)
                 (A) (A) (A) (A) (A) (A) (A) (A) (A) (A) (A) (A)
                 (A) (A) (A) (A) (A) (A) (A) (A) (A) (A) (A) (A)
                 (A) (A) (A) (A) (A) (A) (A) (A) (A) (A) (A) (A)
                 (A) (A) (A) (A) (A) (A) (A) (A) (A) (A) (A) (A)
                 (A) (A) (A) (A) (A) (A) (A) (A) (A) (A) (A) (A)
                 (A) (A) (A) (A) (A) (A) (A) (A) (A) (A) (A) (A)
                 (A) (A) (A) (A) (A) (A) (A) (A) (A) (A) (A) (A)
                 (A) (A) (A) (A) (A) (A) (A) (A) (A) (A) (A) (A)
                 (A) (A) (A) (A) (A) (A) (A) (A) (A) (A) (A) (A)
                 (A) (A) (A) (A) (A) (A) (A) (A) (A) (A) (A) (A)
                 (A) (A) (A) (A) (A) (A) (A) (A) (A) (A) (A) (A)
                 (A) (A) (A) (A) (A) (A) (A) (A) (A) (A) (A) (A)
                 (A) (A) (A) (A) (A) (A) (A) (A) (A) (A) (A) (A)
                 (A) (A) (A) (A) (A) (A) (A) (A) (A) (A) (A) (A)
                 (A) (A) (A) (A) (A) (A) (A) (A) (A) (A) (A) (A)
                 (A) (A) (A) (A) (A) (A) (A) (A) (A) (A) (A) (A)
                 (A) (A) (A) (A) (A) (A) (A) (A) (A) (A) (A) (A)
                 (A) (A) (A) (A) (A) (A) (A) (A) (A) (A) (A) (A)
                 (A) (A) (A) (A) (A) (A) (A) (A) (A) (A) (A) (A)
                 (A) (A) (A) (A) (A) (A) (A) (A) (A) (A) (A)
 Beta  Orbitals:
       Occupied  (A) (A) (A) (A) (A) (A) (A) (A) (A) (A) (A) (A)
                 (A) (A) (A) (A) (A) (A) (A) (A) (A) (A) (A) (A)
                 (A) (A) (A) (A) (A) (A) (A) (A) (A) (A) (A) (A)
                 (A) (A) (A) (A) (A) (A) (A) (A) (A) (A) (A) (A)
                 (A) (A) (A) (A) (A) (A) (A) (A) (A) (A) (A) (A)
                 (A) (A) (A) (A) (A) (A) (A) (A) (A) (A) (A) (A)
                 (A) (A) (A) (A) (A) (A) (A) (A) (A) (A) (A) (A)
                 (A) (A) (A) (A) (A) (A) (A) (A) (A) (A) (A) (A)
                 (A) (A) (A) (A) (A) (A) (A) (A) (A) (A) (A) (A)
                 (A) (A) (A) (A) (A) (A) (A) (A) (A) (A) (A) (A)
                 (A) (A) (A) (A) (A) (A) (A) (A) (A) (A) (A) (A)
                 (A) (A) (A) (A) (A) (A) (A) (A) (A) (A) (A) (A)
                 (A) (A) (A) (A) (A) (A) (A) (A) (A) (A) (A) (A)
                 (A) (A) (A) (A) (A) (A) (A) (A) (A) (A) (A) (A)
                 (A) (A) (A) (A) (A) (A) (A) (A) (A) (A) (A) (A)
                 (A) (A) (A) (A) (A) (A) (A) (A) (A) (A) (A) (A)
                 (A) (A) (A) (A) (A) (A) (A) (A) (A) (A) (A) (A)
                 (A) (A) (A) (A) (A) (A) (A) (A) (A) (A) (A) (A)
                 (A) (A) (A) (A) (A) (A) (A) (A) (A) (A) (A) (A)
                 (A) (A) (A) (A) (A) (A) (A) (A) (A) (A) (A) (A)
                 (A) (A) (A) (A) (A) (A) (A) (A) (A) (A) (A) (A)
                 (A) (A) (A) (A) (A) (A) (A) (A) (A) (A) (A) (A)
                 (A) (A) (A) (A) (A) (A) (A) (A) (A) (A) (A) (A)
                 (A) (A) (A) (A) (A) (A) (A) (A) (A) (A) (A) (A)
                 (A) (A) (A) (A) (A) (A) (A) (A) (A) (A) (A) (A)
                 (A) (A) (A) (A) (A) (A) (A) (A) (A) (A) (A) (A)
                 (A) (A) (A) (A) (A) (A) (A) (A) (A) (A) (A) (A)
                 (A) (A) (A) (A) (A) (A) (A) (A) (A) (A) (A) (A)
                 (A) (A) (A) (A) (A) (A) (A) (A) (A) (A) (A) (A)
                 (A) (A) (A) (A) (A) (A)
       Virtual   (A) (A) (A) (A) (A) (A) (A) (A) (A) (A) (A) (A)
                 (A) (A) (A) (A) (A) (A) (A) (A) (A) (A) (A) (A)
                 (A) (A) (A) (A) (A) (A) (A) (A) (A) (A) (A) (A)
                 (A) (A) (A) (A) (A) (A) (A) (A) (A) (A) (A) (A)
                 (A) (A) (A) (A) (A) (A) (A) (A) (A) (A) (A) (A)
                 (A) (A) (A) (A) (A) (A) (A) (A) (A) (A) (A) (A)
                 (A) (A) (A) (A) (A) (A) (A) (A) (A) (A) (A) (A)
                 (A) (A) (A) (A) (A) (A) (A) (A) (A) (A) (A) (A)
                 (A) (A) (A) (A) (A) (A) (A) (A) (A) (A) (A) (A)
                 (A) (A) (A) (A) (A) (A) (A) (A) (A) (A) (A) (A)
                 (A) (A) (A) (A) (A) (A) (A) (A) (A) (A) (A) (A)
                 (A) (A) (A) (A) (A) (A) (A) (A) (A) (A) (A) (A)
                 (A) (A) (A) (A) (A) (A) (A) (A) (A) (A) (A) (A)
                 (A) (A) (A) (A) (A) (A) (A) (A) (A) (A) (A) (A)
                 (A) (A) (A) (A) (A) (A) (A) (A) (A) (A) (A) (A)
                 (A) (A) (A) (A) (A) (A) (A) (A) (A) (A) (A) (A)
                 (A) (A) (A) (A) (A) (A) (A) (A) (A) (A) (A) (A)
                 (A) (A) (A) (A) (A) (A) (A) (A) (A) (A) (A) (A)
                 (A) (A) (A) (A) (A) (A) (A) (A) (A) (A) (A) (A)
                 (A) (A) (A) (A) (A) (A) (A) (A) (A) (A) (A) (A)
                 (A) (A) (A) (A) (A) (A) (A) (A) (A) (A) (A) (A)
                 (A) (A) (A) (A) (A) (A) (A) (A) (A) (A) (A) (A)
                 (A) (A) (A) (A) (A) (A) (A) (A) (A) (A) (A) (A)
                 (A) (A) (A) (A) (A) (A) (A) (A) (A) (A) (A) (A)
                 (A) (A) (A) (A) (A) (A) (A) (A) (A) (A) (A) (A)
                 (A) (A) (A) (A) (A) (A) (A) (A) (A) (A) (A) (A)
                 (A) (A) (A) (A) (A) (A) (A) (A) (A) (A) (A) (A)
                 (A) (A) (A) (A) (A) (A) (A) (A) (A) (A) (A) (A)
                 (A) (A) (A) (A) (A) (A) (A) (A) (A) (A) (A) (A)
                 (A) (A) (A) (A) (A) (A) (A) (A) (A) (A) (A) (A)
                 (A) (A) (A) (A) (A) (A) (A) (A) (A) (A) (A) (A)
                 (A) (A) (A) (A) (A) (A) (A) (A) (A) (A) (A) (A)
                 (A) (A) (A) (A) (A) (A) (A) (A) (A) (A) (A) (A)
                 (A) (A) (A) (A) (A) (A) (A) (A) (A) (A) (A) (A)
                 (A) (A) (A) (A) (A) (A) (A) (A) (A) (A) (A) (A)
                 (A) (A) (A) (A) (A) (A) (A) (A) (A) (A) (A) (A)
                 (A) (A) (A) (A) (A) (A) (A) (A) (A) (A) (A) (A)
                 (A) (A) (A) (A) (A) (A) (A) (A) (A) (A) (A) (A)
                 (A) (A) (A) (A) (A) (A) (A) (A) (A) (A) (A) (A)
                 (A) (A) (A) (A) (A) (A) (A) (A) (A) (A) (A) (A)
                 (A) (A) (A) (A) (A) (A) (A) (A) (A) (A) (A) (A)
                 (A) (A) (A) (A) (A) (A) (A) (A) (A) (A) (A) (A)
                 (A) (A) (A) (A) (A) (A) (A) (A) (A) (A) (A) (A)
                 (A) (A) (A) (A) (A) (A) (A) (A) (A) (A) (A) (A)
                 (A) (A) (A) (A) (A) (A) (A) (A) (A) (A) (A) (A)
                 (A) (A) (A) (A) (A) (A) (A) (A) (A) (A) (A) (A)
                 (A) (A) (A) (A) (A) (A) (A) (A) (A) (A) (A) (A)
                 (A) (A) (A) (A) (A) (A) (A) (A) (A) (A) (A) (A)
                 (A) (A) (A) (A) (A) (A) (A) (A) (A) (A) (A) (A)
                 (A) (A) (A) (A) (A) (A) (A) (A) (A) (A) (A) (A)
                 (A) (A) (A) (A) (A) (A) (A) (A) (A) (A) (A) (A)
                 (A) (A) (A) (A) (A) (A) (A) (A) (A) (A) (A) (A)
                 (A) (A) (A) (A) (A) (A) (A) (A) (A) (A) (A) (A)
                 (A) (A) (A) (A) (A) (A) (A) (A) (A) (A) (A) (A)
                 (A) (A) (A) (A) (A) (A) (A) (A) (A) (A) (A) (A)
                 (A) (A) (A) (A) (A) (A) (A) (A) (A) (A) (A) (A)
                 (A) (A) (A) (A) (A) (A) (A) (A) (A) (A) (A) (A)
                 (A) (A) (A) (A) (A) (A) (A) (A) (A) (A) (A) (A)
                 (A) (A) (A) (A) (A) (A) (A) (A) (A) (A) (A) (A)
                 (A) (A) (A) (A) (A) (A) (A) (A) (A) (A) (A) (A)
                 (A) (A) (A) (A) (A) (A) (A) (A) (A) (A) (A) (A)
                 (A) (A) (A) (A) (A) (A) (A) (A) (A) (A) (A) (A)
                 (A) (A) (A) (A) (A) (A) (A) (A) (A) (A) (A) (A)
                 (A) (A) (A) (A) (A) (A) (A) (A) (A) (A) (A) (A)
                 (A) (A) (A) (A) (A) (A) (A) (A) (A) (A) (A) (A)
                 (A) (A) (A) (A) (A) (A) (A) (A) (A) (A) (A) (A)
                 (A) (A) (A) (A) (A) (A) (A) (A) (A) (A) (A) (A)
                 (A) (A) (A) (A) (A) (A) (A) (A) (A) (A) (A) (A)
                 (A) (A) (A) (A) (A) (A) (A) (A) (A) (A) (A) (A)
                 (A) (A) (A) (A) (A) (A) (A) (A) (A) (A) (A) (A)
                 (A) (A) (A) (A) (A) (A) (A) (A) (A) (A) (A) (A)
                 (A) (A) (A) (A) (A) (A) (A) (A) (A) (A) (A) (A)
                 (A) (A) (A) (A) (A) (A) (A) (A) (A) (A) (A) (A)
                 (A) (A) (A) (A) (A) (A) (A) (A) (A) (A) (A) (A)
                 (A) (A) (A) (A) (A) (A) (A) (A) (A) (A) (A) (A)
                 (A) (A) (A) (A) (A) (A) (A) (A) (A) (A) (A) (A)
                 (A) (A) (A) (A) (A) (A) (A) (A) (A) (A) (A) (A)
                 (A) (A) (A) (A) (A) (A) (A) (A) (A) (A) (A) (A)
                 (A) (A) (A) (A) (A) (A) (A) (A) (A) (A) (A) (A)
                 (A) (A) (A) (A) (A) (A) (A) (A) (A) (A) (A) (A)
                 (A) (A) (A) (A) (A) (A) (A) (A) (A) (A) (A) (A)
                 (A) (A) (A) (A) (A) (A) (A) (A) (A) (A) (A) (A)
                 (A) (A) (A) (A) (A) (A) (A) (A) (A) (A) (A) (A)
                 (A) (A) (A) (A) (A) (A) (A) (A) (A) (A) (A) (A)
                 (A) (A) (A) (A) (A) (A) (A) (A) (A) (A) (A) (A)
                 (A) (A) (A) (A) (A) (A) (A) (A) (A) (A) (A) (A)
                 (A) (A) (A) (A) (A) (A) (A) (A) (A) (A) (A) (A)
                 (A) (A) (A) (A) (A) (A) (A) (A) (A) (A) (A) (A)
                 (A) (A) (A) (A) (A) (A) (A) (A) (A) (A) (A) (A)
                 (A) (A) (A) (A) (A) (A) (A) (A) (A) (A) (A) (A)
                 (A) (A) (A) (A) (A) (A) (A) (A) (A) (A) (A) (A)
                 (A) (A) (A) (A) (A) (A) (A) (A) (A) (A) (A) (A)
                 (A) (A) (A) (A) (A) (A) (A) (A) (A) (A) (A) (A)
                 (A) (A) (A) (A) (A) (A) (A) (A) (A) (A) (A) (A)
                 (A) (A) (A) (A) (A) (A) (A) (A) (A) (A) (A) (A)
                 (A) (A) (A) (A) (A) (A) (A) (A) (A) (A) (A) (A)
                 (A) (A) (A) (A) (A) (A) (A) (A) (A) (A) (A) (A)
                 (A) (A) (A) (A) (A) (A) (A) (A) (A) (A) (A) (A)
                 (A) (A) (A) (A) (A) (A) (A) (A) (A) (A) (A) (A)
                 (A) (A) (A) (A) (A) (A) (A) (A) (A) (A) (A) (A)
                 (A) (A) (A) (A) (A) (A) (A) (A) (A) (A) (A) (A)
                 (A) (A) (A) (A) (A) (A) (A) (A) (A) (A) (A) (A)
                 (A) (A) (A) (A) (A) (A) (A) (A) (A) (A) (A) (A)
                 (A) (A) (A) (A) (A) (A) (A) (A) (A) (A) (A) (A)
                 (A) (A) (A) (A) (A) (A) (A) (A) (A) (A) (A) (A)
                 (A) (A) (A) (A) (A) (A) (A) (A) (A) (A) (A) (A)
                 (A) (A) (A) (A) (A) (A) (A) (A) (A) (A) (A) (A)
                 (A) (A) (A) (A) (A) (A) (A) (A) (A) (A) (A) (A)
                 (A) (A) (A) (A) (A) (A) (A) (A) (A) (A) (A) (A)
                 (A) (A) (A) (A) (A) (A) (A) (A) (A) (A) (A) (A)
                 (A) (A) (A) (A) (A) (A) (A) (A) (A) (A) (A) (A)
                 (A) (A) (A) (A) (A) (A) (A) (A) (A) (A) (A) (A)
                 (A) (A) (A) (A) (A) (A) (A) (A) (A) (A) (A) (A)
                 (A) (A) (A) (A) (A) (A) (A) (A) (A) (A) (A) (A)
                 (A) (A) (A) (A) (A) (A) (A) (A) (A) (A) (A) (A)
                 (A) (A) (A) (A) (A) (A) (A) (A) (A) (A) (A) (A)
                 (A) (A) (A) (A) (A) (A) (A) (A) (A) (A) (A) (A)
                 (A) (A) (A) (A) (A) (A) (A) (A) (A) (A) (A) (A)
                 (A) (A) (A) (A) (A) (A) (A) (A) (A) (A) (A) (A)
                 (A) (A) (A) (A) (A) (A) (A) (A) (A) (A) (A) (A)
 The electronic state of the initial guess is 2-A.
 Initial guess <Sx>= 0.0000 <Sy>= 0.0000 <Sz>= 0.5000 <S**2>= 0.7500 S= 0.5000
 Leave Link  401 at Tue Jan 27 17:11:04 2015, MaxMem= 2147483648 cpu:     690.4
 (Enter /opt/g09/l502.exe)
 UHF open shell SCF:
 Requested convergence on RMS density matrix=1.00D-08 within 128 cycles.
 Requested convergence on MAX density matrix=1.00D-06.
 Requested convergence on             energy=1.00D-06.
 No special actions if energy rises.
 Using DIIS extrapolation, IDIIS=  1040.
 Integral symmetry usage will be decided dynamically.
      1569196 words used for storage of precomputed grid.
 IEnd=    12420249 IEndB=    12420249 NGot=  2147483648 MDV=  2138672960
 LenX=  2138672960 LenY=  2135080040
 Fock matrices will be formed incrementally for  20 cycles.
 Integral accuracy reduced to 1.0D-05 until final iterations.

 Cycle   1  Pass 0  IDiag  1:
 FoFCou: FMM=T IPFlag=           0 FMFlag=      100000 FMFlg1=        2001
         NFxFlg=           0 DoJE=F BraDBF=F KetDBF=F FulRan=T
         Omega=  0.000000  0.000000  1.000000  0.000000  0.000000 ICntrl=       0 IOpCl=  1
         NMat0=    1 NMatS0=    1 NMatT0=    0 NMatD0=    1 NMtDS0=    0 NMtDT0=    0
         I1Cent=           0 NGrid=           0.
 Symmetry not used in FoFCou.
 FMM levels:  10  Number of levels for PrismC:   9
 E= -4404.59620882427    
 DIIS: error= 1.88D-02 at cycle   1 NSaved=   1.
 NSaved= 1 IEnMin= 1 EnMin= -4404.59620882427     IErMin= 1 ErrMin= 1.88D-02
 ErrMax= 1.88D-02 EMaxC= 1.00D-01 BMatC= 6.66D+00 BMatP= 6.66D+00
 IDIUse=3 WtCom= 8.12D-01 WtEn= 1.88D-01
 Coeff-Com:  0.100D+01
 Coeff-En:   0.100D+01
 Coeff:      0.100D+01
 Gap=     0.141 Goal=   None    Shift=    0.000
 Gap=     0.015 Goal=   None    Shift=    0.000
 GapD=    0.015 DampG=0.250 DampE=0.500 DampFc=0.2500 IDamp=-1.
 Damping current iteration by 2.50D-01
 RMSDP=2.01D-03 MaxDP=1.79D-01              OVMax= 2.52D-01

 Cycle   2  Pass 0  IDiag  1:
 RMSU=  3.38D-04    CP:  9.81D-01
 E= -4405.25189561606     Delta-E=       -0.655686791790 Rises=F Damp=T
 DIIS: error= 9.82D-03 at cycle   2 NSaved=   2.
 NSaved= 2 IEnMin= 2 EnMin= -4405.25189561606     IErMin= 2 ErrMin= 9.82D-03
 ErrMax= 9.82D-03 EMaxC= 1.00D-01 BMatC= 1.87D+00 BMatP= 6.66D+00
 IDIUse=3 WtCom= 9.02D-01 WtEn= 9.82D-02
 Coeff-Com: -0.945D+00 0.195D+01
 Coeff-En:   0.000D+00 0.100D+01
 Coeff:     -0.852D+00 0.185D+01
 Gap=     0.144 Goal=   None    Shift=    0.000
 Gap=     0.017 Goal=   None    Shift=    0.000
 RMSDP=9.89D-04 MaxDP=1.37D-01 DE=-6.56D-01 OVMax= 3.19D-01

 Cycle   3  Pass 0  IDiag  1:
 RMSU=  3.84D-04    CP:  9.39D-01  2.56D+00
 E= -4406.33220560277     Delta-E=       -1.080309986708 Rises=F Damp=F
 DIIS: error= 3.68D-03 at cycle   3 NSaved=   3.
 NSaved= 3 IEnMin= 3 EnMin= -4406.33220560277     IErMin= 3 ErrMin= 3.68D-03
 ErrMax= 3.68D-03 EMaxC= 1.00D-01 BMatC= 4.10D-01 BMatP= 1.87D+00
 IDIUse=3 WtCom= 9.63D-01 WtEn= 3.68D-02
 Coeff-Com: -0.511D+00 0.101D+01 0.497D+00
 Coeff-En:   0.000D+00 0.000D+00 0.100D+01
 Coeff:     -0.493D+00 0.977D+00 0.515D+00
 Gap=     0.153 Goal=   None    Shift=    0.000
 Gap=     0.010 Goal=   None    Shift=    0.000
 RMSDP=3.92D-04 MaxDP=8.20D-02 DE=-1.08D+00 OVMax= 4.57D-01

 Cycle   4  Pass 0  IDiag  1:
 RMSU=  1.82D-04    CP:  9.42D-01  2.53D+00  5.57D-01
 E= -4406.38862560242     Delta-E=       -0.056419999644 Rises=F Damp=F
 DIIS: error= 2.87D-03 at cycle   4 NSaved=   4.
 NSaved= 4 IEnMin= 4 EnMin= -4406.38862560242     IErMin= 4 ErrMin= 2.87D-03
 ErrMax= 2.87D-03 EMaxC= 1.00D-01 BMatC= 1.77D-01 BMatP= 4.10D-01
 IDIUse=3 WtCom= 9.71D-01 WtEn= 2.87D-02
 Coeff-Com: -0.184D+00 0.363D+00 0.382D+00 0.439D+00
 Coeff-En:   0.000D+00 0.000D+00 0.357D+00 0.643D+00
 Coeff:     -0.179D+00 0.353D+00 0.382D+00 0.444D+00
 Gap=     0.143 Goal=   None    Shift=    0.000
 Gap=     0.006 Goal=   None    Shift=    0.000
 RMSDP=3.11D-04 MaxDP=6.97D-02 DE=-5.64D-02 OVMax= 5.98D-01

 Cycle   5  Pass 0  IDiag  1:
 RMSU=  8.60D-05    CP:  9.42D-01  2.48D+00  7.52D-01  2.36D-01
 E= -4406.41968774523     Delta-E=       -0.031062142811 Rises=F Damp=F
 DIIS: error= 1.84D-03 at cycle   5 NSaved=   5.
 NSaved= 5 IEnMin= 5 EnMin= -4406.41968774523     IErMin= 5 ErrMin= 1.84D-03
 ErrMax= 1.84D-03 EMaxC= 1.00D-01 BMatC= 5.82D-02 BMatP= 1.77D-01
 IDIUse=3 WtCom= 9.82D-01 WtEn= 1.84D-02
 Coeff-Com: -0.753D-01 0.149D+00 0.249D+00 0.371D+00 0.307D+00
 Coeff-En:   0.000D+00 0.000D+00 0.000D+00 0.311D+00 0.689D+00
 Coeff:     -0.739D-01 0.146D+00 0.244D+00 0.370D+00 0.314D+00
 Gap=     0.139 Goal=   None    Shift=    0.000
 Gap=     0.007 Goal=   None    Shift=    0.000
 RMSDP=2.50D-04 MaxDP=4.86D-02 DE=-3.11D-02 OVMax= 4.84D-01

 Cycle   6  Pass 0  IDiag  1:
 RMSU=  4.68D-05    CP:  9.42D-01  2.49D+00  6.79D-01  6.49D-01 -1.34D-01
 E= -4406.43295054890     Delta-E=       -0.013262803674 Rises=F Damp=F
 DIIS: error= 8.93D-04 at cycle   6 NSaved=   6.
 NSaved= 6 IEnMin= 6 EnMin= -4406.43295054890     IErMin= 6 ErrMin= 8.93D-04
 ErrMax= 8.93D-04 EMaxC= 1.00D-01 BMatC= 1.92D-02 BMatP= 5.82D-02
 IDIUse=3 WtCom= 9.91D-01 WtEn= 8.93D-03
 Coeff-Com: -0.208D-01 0.419D-01 0.127D+00 0.220D+00 0.306D+00 0.326D+00
 Coeff-En:   0.000D+00 0.000D+00 0.000D+00 0.000D+00 0.319D+00 0.681D+00
 Coeff:     -0.206D-01 0.415D-01 0.126D+00 0.218D+00 0.306D+00 0.329D+00
 Gap=     0.133 Goal=   None    Shift=    0.000
 Gap=     0.012 Goal=   None    Shift=    0.000
 RMSDP=1.02D-04 MaxDP=1.75D-02 DE=-1.33D-02 OVMax= 1.95D-01

 Cycle   7  Pass 0  IDiag  1:
 RMSU=  1.60D-05    CP:  9.42D-01  2.50D+00  7.07D-01  5.04D-01  2.44D-01
                    CP:  4.09D-01
 E= -4406.43923233412     Delta-E=       -0.006281785219 Rises=F Damp=F
 DIIS: error= 2.66D-04 at cycle   7 NSaved=   7.
 NSaved= 7 IEnMin= 7 EnMin= -4406.43923233412     IErMin= 7 ErrMin= 2.66D-04
 ErrMax= 2.66D-04 EMaxC= 1.00D-01 BMatC= 1.31D-03 BMatP= 1.92D-02
 IDIUse=3 WtCom= 9.97D-01 WtEn= 2.66D-03
 Coeff-Com:  0.141D-02-0.180D-02 0.369D-01 0.686D-01 0.163D+00 0.223D+00
 Coeff-Com:  0.509D+00
 Coeff-En:   0.000D+00 0.000D+00 0.000D+00 0.000D+00 0.000D+00 0.189D-01
 Coeff-En:   0.981D+00
 Coeff:      0.141D-02-0.180D-02 0.368D-01 0.684D-01 0.162D+00 0.223D+00
 Coeff:      0.510D+00
 Gap=     0.131 Goal=   None    Shift=    0.000
 Gap=     0.013 Goal=   None    Shift=    0.000
 RMSDP=3.05D-05 MaxDP=5.58D-03 DE=-6.28D-03 OVMax= 4.32D-02

 Cycle   8  Pass 0  IDiag  1:
 RMSU=  9.56D-06    CP:  9.42D-01  2.50D+00  7.08D-01  5.17D-01  2.18D-01
                    CP:  5.43D-01  6.66D-01
 E= -4406.43936657212     Delta-E=       -0.000134238002 Rises=F Damp=F
 DIIS: error= 2.20D-04 at cycle   8 NSaved=   8.
 NSaved= 8 IEnMin= 8 EnMin= -4406.43936657212     IErMin= 8 ErrMin= 2.20D-04
 ErrMax= 2.20D-04 EMaxC= 1.00D-01 BMatC= 8.62D-04 BMatP= 1.31D-03
 IDIUse=3 WtCom= 9.98D-01 WtEn= 2.20D-03
 Coeff-Com:  0.442D-02-0.800D-02 0.102D-01 0.195D-01 0.890D-01 0.124D+00
 Coeff-Com:  0.435D+00 0.326D+00
 Coeff-En:   0.000D+00 0.000D+00 0.000D+00 0.000D+00 0.000D+00 0.000D+00
 Coeff-En:   0.421D+00 0.579D+00
 Coeff:      0.441D-02-0.798D-02 0.102D-01 0.194D-01 0.888D-01 0.123D+00
 Coeff:      0.435D+00 0.327D+00
 Gap=     0.131 Goal=   None    Shift=    0.000
 Gap=     0.014 Goal=   None    Shift=    0.000
 RMSDP=1.85D-05 MaxDP=3.28D-03 DE=-1.34D-04 OVMax= 3.00D-02

 Cycle   9  Pass 0  IDiag  1:
 RMSU=  4.03D-06    CP:  9.42D-01  2.50D+00  7.10D-01  5.11D-01  2.27D-01
                    CP:  5.12D-01  8.30D-01  3.63D-01
 E= -4406.43964115046     Delta-E=       -0.000274578339 Rises=F Damp=F
 DIIS: error= 7.23D-05 at cycle   9 NSaved=   9.
 NSaved= 9 IEnMin= 9 EnMin= -4406.43964115046     IErMin= 9 ErrMin= 7.23D-05
 ErrMax= 7.23D-05 EMaxC= 1.00D-01 BMatC= 8.63D-05 BMatP= 8.62D-04
 IDIUse=1 WtCom= 1.00D+00 WtEn= 0.00D+00
 Coeff-Com:  0.252D-02-0.464D-02 0.127D-02 0.667D-03 0.364D-01 0.403D-01
 Coeff-Com:  0.226D+00 0.247D+00 0.450D+00
 Coeff:      0.252D-02-0.464D-02 0.127D-02 0.667D-03 0.364D-01 0.403D-01
 Coeff:      0.226D+00 0.247D+00 0.450D+00
 Gap=     0.131 Goal=   None    Shift=    0.000
 Gap=     0.014 Goal=   None    Shift=    0.000
 RMSDP=5.14D-06 MaxDP=6.61D-04 DE=-2.75D-04 OVMax= 6.63D-03

 Initial convergence to 1.0D-05 achieved.  Increase integral accuracy.
 Cycle  10  Pass 1  IDiag  1:
 E= -4406.43924425136     Delta-E=        0.000396899097 Rises=F Damp=F
 DIIS: error= 3.65D-04 at cycle   1 NSaved=   1.
 NSaved= 1 IEnMin= 1 EnMin= -4406.43924425136     IErMin= 1 ErrMin= 3.65D-04
 ErrMax= 3.65D-04 EMaxC= 1.00D-01 BMatC= 5.68D-04 BMatP= 5.68D-04
 IDIUse=3 WtCom= 9.96D-01 WtEn= 3.65D-03
 Coeff-Com:  0.100D+01
 Coeff-En:   0.100D+01
 Coeff:      0.100D+01
 Gap=     0.130 Goal=   None    Shift=    0.000
 Gap=     0.014 Goal=   None    Shift=    0.000
 RMSDP=5.14D-06 MaxDP=6.61D-04 DE= 3.97D-04 OVMax= 1.39D-02

 Cycle  11  Pass 1  IDiag  1:
 RMSU=  1.22D-04    CP:  9.99D-01
 E= -4406.43931714437     Delta-E=       -0.000072893003 Rises=F Damp=F
 DIIS: error= 9.87D-05 at cycle   2 NSaved=   2.
 NSaved= 2 IEnMin= 2 EnMin= -4406.43931714437     IErMin= 2 ErrMin= 9.87D-05
 ErrMax= 9.87D-05 EMaxC= 1.00D-01 BMatC= 1.76D-04 BMatP= 5.68D-04
 IDIUse=1 WtCom= 1.00D+00 WtEn= 0.00D+00
 Coeff-Com:  0.266D+00 0.734D+00
 Coeff:      0.266D+00 0.734D+00
 Gap=     0.132 Goal=   None    Shift=    0.000
 Gap=     0.014 Goal=   None    Shift=    0.000
 RMSDP=3.21D-05 MaxDP=6.08D-03 DE=-7.29D-05 OVMax= 5.94D-02

 Cycle  12  Pass 1  IDiag  1:
 RMSU=  8.62D-06    CP:  9.99D-01  9.96D-01
 E= -4406.43889131758     Delta-E=        0.000425826791 Rises=F Damp=F
 DIIS: error= 2.36D-04 at cycle   3 NSaved=   3.
 NSaved= 3 IEnMin= 2 EnMin= -4406.43931714437     IErMin= 2 ErrMin= 9.87D-05
 ErrMax= 2.36D-04 EMaxC= 1.00D-01 BMatC= 1.40D-03 BMatP= 1.76D-04
 IDIUse=3 WtCom= 3.94D-01 WtEn= 6.06D-01
 Coeff-Com:  0.167D-01 0.731D+00 0.252D+00
 Coeff-En:   0.000D+00 0.801D+00 0.199D+00
 Coeff:      0.657D-02 0.773D+00 0.220D+00
 Gap=     0.131 Goal=   None    Shift=    0.000
 Gap=     0.014 Goal=   None    Shift=    0.000
 RMSDP=2.23D-05 MaxDP=4.04D-03 DE= 4.26D-04 OVMax= 4.33D-02

 Cycle  13  Pass 1  IDiag  1:
 RMSU=  2.37D-06    CP:  9.99D-01  1.01D+00  3.16D-01
 E= -4406.43935275632     Delta-E=       -0.000461438747 Rises=F Damp=F
 DIIS: error= 1.10D-04 at cycle   4 NSaved=   4.
 NSaved= 4 IEnMin= 4 EnMin= -4406.43935275632     IErMin= 2 ErrMin= 9.87D-05
 ErrMax= 1.10D-04 EMaxC= 1.00D-01 BMatC= 8.17D-05 BMatP= 1.76D-04
 IDIUse=3 WtCom= 9.99D-01 WtEn= 1.10D-03
 Coeff-Com: -0.456D-02 0.559D+00 0.145D+00 0.301D+00
 Coeff-En:   0.000D+00 0.337D+00 0.000D+00 0.663D+00
 Coeff:     -0.455D-02 0.558D+00 0.145D+00 0.301D+00
 Gap=     0.130 Goal=   None    Shift=    0.000
 Gap=     0.014 Goal=   None    Shift=    0.000
 RMSDP=3.54D-06 MaxDP=3.69D-04 DE=-4.61D-04 OVMax= 3.97D-03

 Cycle  14  Pass 1  IDiag  1:
 RMSU=  5.55D-07    CP:  9.99D-01  1.01D+00  2.68D-01  2.01D-01
 E= -4406.43937630985     Delta-E=       -0.000023553530 Rises=F Damp=F
 DIIS: error= 9.39D-06 at cycle   5 NSaved=   5.
 NSaved= 5 IEnMin= 5 EnMin= -4406.43937630985     IErMin= 5 ErrMin= 9.39D-06
 ErrMax= 9.39D-06 EMaxC= 1.00D-01 BMatC= 1.68D-06 BMatP= 8.17D-05
 IDIUse=1 WtCom= 1.00D+00 WtEn= 0.00D+00
 Coeff-Com: -0.368D-02 0.367D+00 0.867D-01 0.223D+00 0.327D+00
 Coeff:     -0.368D-02 0.367D+00 0.867D-01 0.223D+00 0.327D+00
 Gap=     0.130 Goal=   None    Shift=    0.000
 Gap=     0.014 Goal=   None    Shift=    0.000
 RMSDP=6.23D-07 MaxDP=8.64D-05 DE=-2.36D-05 OVMax= 8.28D-04

 Cycle  15  Pass 1  IDiag  1:
 RMSU=  2.82D-07    CP:  9.99D-01  1.01D+00  2.62D-01  2.65D-01  7.12D-01
 E= -4406.43937670636     Delta-E=       -0.000000396507 Rises=F Damp=F
 DIIS: error= 5.33D-06 at cycle   6 NSaved=   6.
 NSaved= 6 IEnMin= 6 EnMin= -4406.43937670636     IErMin= 6 ErrMin= 5.33D-06
 ErrMax= 5.33D-06 EMaxC= 1.00D-01 BMatC= 4.48D-07 BMatP= 1.68D-06
 IDIUse=1 WtCom= 1.00D+00 WtEn= 0.00D+00
 Coeff-Com: -0.128D-02 0.959D-01 0.894D-02 0.894D-01 0.194D+00 0.613D+00
 Coeff:     -0.128D-02 0.959D-01 0.894D-02 0.894D-01 0.194D+00 0.613D+00
 Gap=     0.130 Goal=   None    Shift=    0.000
 Gap=     0.014 Goal=   None    Shift=    0.000
 RMSDP=5.27D-07 MaxDP=8.12D-05 DE=-3.97D-07 OVMax= 7.54D-04

 Cycle  16  Pass 1  IDiag  1:
 RMSU=  1.92D-07    CP:  9.99D-01  1.01D+00  2.65D-01  2.45D-01  1.06D+00
                    CP:  5.59D-01
 E= -4406.43937680526     Delta-E=       -0.000000098902 Rises=F Damp=F
 DIIS: error= 4.42D-06 at cycle   7 NSaved=   7.
 NSaved= 7 IEnMin= 7 EnMin= -4406.43937680526     IErMin= 7 ErrMin= 4.42D-06
 ErrMax= 4.42D-06 EMaxC= 1.00D-01 BMatC= 4.29D-07 BMatP= 4.48D-07
 IDIUse=1 WtCom= 1.00D+00 WtEn= 0.00D+00
 Coeff-Com:  0.176D-02-0.210D+00-0.743D-01-0.753D-01-0.140D+00 0.800D+00
 Coeff-Com:  0.699D+00
 Coeff:      0.176D-02-0.210D+00-0.743D-01-0.753D-01-0.140D+00 0.800D+00
 Coeff:      0.699D+00
 Gap=     0.130 Goal=   None    Shift=    0.000
 Gap=     0.014 Goal=   None    Shift=    0.000
 RMSDP=3.96D-07 MaxDP=6.16D-05 DE=-9.89D-08 OVMax= 2.16D-04

 Cycle  17  Pass 1  IDiag  1:
 RMSU=  1.38D-07    CP:  9.99D-01  1.01D+00  2.64D-01  2.65D-01  1.18D+00
                    CP:  1.21D+00  1.13D+00
 E= -4406.43937699309     Delta-E=       -0.000000187832 Rises=F Damp=F
 DIIS: error= 2.53D-06 at cycle   8 NSaved=   8.
 NSaved= 8 IEnMin= 8 EnMin= -4406.43937699309     IErMin= 8 ErrMin= 2.53D-06
 ErrMax= 2.53D-06 EMaxC= 1.00D-01 BMatC= 6.42D-08 BMatP= 4.29D-07
 IDIUse=1 WtCom= 1.00D+00 WtEn= 0.00D+00
 Coeff-Com:  0.164D-02-0.181D+00-0.592D-01-0.755D-01-0.173D+00 0.441D+00
 Coeff-Com:  0.504D+00 0.542D+00
 Coeff:      0.164D-02-0.181D+00-0.592D-01-0.755D-01-0.173D+00 0.441D+00
 Coeff:      0.504D+00 0.542D+00
 Gap=     0.130 Goal=   None    Shift=    0.000
 Gap=     0.014 Goal=   None    Shift=    0.000
 RMSDP=1.95D-07 MaxDP=3.23D-05 DE=-1.88D-07 OVMax= 1.64D-04

 Cycle  18  Pass 1  IDiag  1:
 RMSU=  7.19D-08    CP:  9.99D-01  1.01D+00  2.64D-01  2.67D-01  1.29D+00
                    CP:  1.29D+00  1.41D+00  9.54D-01
 E= -4406.43937702037     Delta-E=       -0.000000027278 Rises=F Damp=F
 DIIS: error= 1.20D-06 at cycle   9 NSaved=   9.
 NSaved= 9 IEnMin= 9 EnMin= -4406.43937702037     IErMin= 9 ErrMin= 1.20D-06
 ErrMax= 1.20D-06 EMaxC= 1.00D-01 BMatC= 2.15D-08 BMatP= 6.42D-08
 IDIUse=1 WtCom= 1.00D+00 WtEn= 0.00D+00
 Coeff-Com:  0.799D-03-0.831D-01-0.258D-01-0.379D-01-0.988D-01 0.964D-01
 Coeff-Com:  0.178D+00 0.443D+00 0.527D+00
 Coeff:      0.799D-03-0.831D-01-0.258D-01-0.379D-01-0.988D-01 0.964D-01
 Coeff:      0.178D+00 0.443D+00 0.527D+00
 Gap=     0.130 Goal=   None    Shift=    0.000
 Gap=     0.014 Goal=   None    Shift=    0.000
 RMSDP=1.33D-07 MaxDP=1.53D-05 DE=-2.73D-08 OVMax= 2.08D-04

 Cycle  19  Pass 1  IDiag  1:
[...]
            175        176        177
     1  C    0.000000   0.000000   0.000000
     2  C    0.000000   0.000000   0.000000
     3  C    0.000000   0.000000   0.000000
     4  C    0.000000   0.000000   0.000000
     5  C    0.000000   0.000000   0.000000
     6  C    0.000000   0.000000   0.000000
     7  C    0.000000   0.000000   0.000000
     8  C    0.000000   0.000000   0.000000
     9  C    0.000000   0.000000   0.000000
    10  C    0.000000   0.000000   0.000000
    11  C    0.000000   0.000000   0.000000
    12  C    0.000000   0.000000   0.000000
    13  C    0.000000   0.000000   0.000000
    14  C    0.000000   0.000000   0.000000
    15  C    0.000000   0.000000   0.000000
    16  C    0.000000   0.000000   0.000000
    17  C    0.000000   0.000000   0.000000
    18  C    0.000000   0.000000   0.000000
    19  C    0.000000   0.000000   0.000000
    20  C    0.000000   0.000000   0.000000
    21  C    0.000000   0.000000   0.000000
    22  C    0.000000   0.000000   0.000000
    23  C    0.000000   0.000000   0.000000
    24  C    0.000000   0.000000   0.000000
    25  C    0.000000   0.000000   0.000000
    26  N    0.000000   0.000000   0.000000
    27  N    0.000000   0.000000   0.000000
    28  N    0.000000   0.000000   0.000000
    29  N    0.000000   0.000000   0.000000
    30  C    0.000000   0.000000   0.000000
    31  C    0.000000   0.000000   0.000000
    32  C    0.000000   0.000000   0.000000
    33  C    0.000000   0.000000   0.000000
    34  C    0.000000   0.000000   0.000000
    35  C    0.000000   0.000000   0.000000
    36  C    0.000000   0.000000   0.000000
    37  C    0.000000   0.000000   0.000000
    38  C    0.000000   0.000000   0.000000
    39  C    0.000000   0.000000   0.000000
    40  C    0.000000   0.000000   0.000000
    41  C    0.000000   0.000000   0.000000
    42  C    0.000000   0.000000   0.000000
    43  C    0.000000   0.000000   0.000000
    44  C    0.000000   0.000000   0.000000
    45  C    0.000000   0.000000   0.000000
    46  C    0.000000   0.000000   0.000000
    47  C    0.000000   0.000000   0.000000
    48  C    0.000000   0.000001  -0.000001
    49  C    0.000000   0.000001   0.000000
    50  C   -0.000001   0.000058   0.000039
    51  C   -0.000003  -0.000092  -0.000063
    52  C    0.000000  -0.000004  -0.000006
    53  C    0.000000   0.000000   0.000000
    54  C    0.000000   0.000000   0.000000
    55  C    0.000000   0.000000   0.000000
    56  C    0.000000   0.000000   0.000000
    57  C    0.000000   0.000000   0.000000
    58  C    0.000000   0.000000   0.000000
    59  C    0.000000   0.000000   0.000000
    60  C    0.000000   0.000000   0.000000
    61  C    0.000000   0.000000   0.000000
    62  C    0.000000   0.000000   0.000000
    63  C    0.000000   0.000000   0.000000
    64  C    0.000000   0.000000   0.000000
    65  C    0.000000   0.000000   0.000000
    66  C    0.000000   0.000000   0.000000
    67  C    0.000000   0.000000   0.000000
    68  C    0.000000   0.000000   0.000000
    69  C    0.000000   0.000000   0.000000
    70  C    0.000000   0.000000   0.000000
    71  C    0.000000   0.000000   0.000000
    72  C    0.000000   0.000000   0.000000
    73  C    0.000000   0.000000   0.000000
    74  C    0.000000   0.000000   0.000000
    75  C    0.000000   0.000000   0.000000
    76  C    0.000000   0.000000   0.000000
    77  C    0.000000   0.000000   0.000000
    78  H    0.000000   0.000000   0.000000
    79  H    0.000000   0.000000   0.000000
    80  H    0.000000   0.000000   0.000000
    81  H    0.000000   0.000000   0.000000
    82  H    0.000000   0.000000   0.000000
    83  H    0.000000   0.000000   0.000000
    84  H    0.000000   0.000000   0.000000
    85  H    0.000000   0.000000   0.000000
    86  H    0.000000   0.000000   0.000000
    87  H    0.000000   0.000000   0.000000
    88  H    0.000000   0.000000   0.000000
    89  H    0.000000   0.000000   0.000000
    90  O    0.000000   0.000000   0.000000
    91  C    0.000000   0.000000   0.000000
    92  O    0.000000   0.000000   0.000000
    93  C    0.000000   0.000000   0.000000
    94  O    0.000000   0.000000   0.000000
    95  O    0.000000   0.000000   0.000000
    96  C    0.000000   0.000000   0.000000
    97  C    0.000000   0.000000   0.000000
    98  H    0.000000   0.000000   0.000000
    99  H    0.000000   0.000000   0.000000
   100  H    0.000000   0.000000   0.000000
   101  H    0.000000   0.000000   0.000000
   102  H    0.000000   0.000000   0.000000
   103  H    0.000000   0.000000   0.000000
   104  H    0.000000   0.000000   0.000000
   105  H    0.000000   0.000000   0.000000
   106  H    0.000000   0.000000   0.000000
   107  H    0.000000   0.000000   0.000000
   108  H    0.000000   0.000000   0.000000
   109  H    0.000000   0.000000   0.000000
   110  H    0.000000   0.000000   0.000000
   111  H    0.000000   0.000000   0.000000
   112  H    0.000000   0.000000   0.000000
   113  H    0.000000   0.000000   0.000000
   114  H    0.000000   0.000000   0.000000
   115  H    0.000000   0.000000   0.000000
   116  H    0.000000   0.000000   0.000000
   117  H    0.000000   0.000000   0.000000
   118  H    0.000000   0.000000   0.000000
   119  H    0.000000   0.000000   0.000000
   120  H    0.000000   0.000000   0.000000
   121  H    0.000000   0.000000   0.000000
   122  H    0.000000   0.000000   0.000000
   123  H    0.000000   0.000000   0.000000
   124  H    0.000000   0.000000   0.000000
   125  H    0.000000   0.000000   0.000000
   126  O    0.000000   0.000000   0.000000
   127  H    0.000000   0.000000   0.000000
   128  H    0.000000   0.000000   0.000000
   129  O    0.000000   0.000000   0.000000
   130  H    0.000000   0.000000   0.000000
   131  H    0.000000   0.000000   0.000000
   132  O    0.000000   0.000000   0.000000
   133  H    0.000000   0.000000   0.000000
   134  O    0.000000   0.000000   0.000000
   135  H    0.000000   0.000000   0.000000
   136  O    0.000000   0.000000   0.000000
   137  H    0.000000   0.000000   0.000000
   138  H    0.000000   0.000000   0.000000
   139  O    0.000000   0.000000   0.000000
   140  H    0.000000   0.000000   0.000000
   141  H    0.000000   0.000000   0.000000
   142  O   -0.000002   0.000058   0.000065
   143  H   -0.000003   0.000017   0.000018
   144  O    0.000000   0.000000   0.000000
   145  H    0.000000   0.000000   0.000000
   146  C    0.000000   0.000000   0.000000
   147  C    0.000000   0.000000   0.000000
   148  C    0.000000   0.000000   0.000000
   149  C    0.000000   0.000000   0.000000
   150  H    0.000000   0.000000   0.000000
   151  H    0.000000   0.000000   0.000000
   152  H    0.000000   0.000000   0.000000
   153  H    0.000000   0.000000   0.000000
   154  H    0.000000   0.000000   0.000000
   155  H    0.000000   0.000000   0.000000
   156  H    0.000000   0.000000   0.000000
   157  H    0.000000  -0.000001   0.000001
   158  H    0.000000   0.000001  -0.000001
   159  H    0.000000   0.000000   0.000000
   160  H    0.000000   0.000000   0.000000
   161  H    0.000000   0.000000   0.000000
   162  C    0.000000   0.000000   0.000000
   163  H    0.000000   0.000000   0.000000
   164  H    0.000000   0.000000   0.000000
   165  H    0.000000   0.000000   0.000000
   166  C    0.000000   0.000000   0.000000
   167  H    0.000000   0.000000   0.000000
   168  H    0.000000   0.000000   0.000000
   169  H    0.000000   0.000000   0.000000
   170  C    0.000000   0.000000   0.000000
   171  H    0.000000   0.000000   0.000000
   172  H    0.000000   0.000000   0.000000
   173  H    0.000000   0.000000   0.000000
   174  C    0.000004   0.000081   0.000044
   175  H    0.000001  -0.000004   0.000006
   176  H   -0.000004  -0.000342   0.000113
   177  H    0.000006   0.000113  -0.000320
 Mulliken atomic spin densities:
              1
     1  C   -0.004178
     2  C    0.006445
     3  C    0.020937
     4  C    0.023611
     5  C    0.004638
     6  C    0.005959
     7  C    0.028205
     8  C    0.025413
     9  C    0.006587
    10  C    0.004730
    11  C    0.012216
    12  C    0.020945
    13  C   -0.003953
    14  C   -0.002940
    15  C    0.017415
    16  C    0.010619
    17  C    0.003033
    18  C    0.002542
    19  C    0.009063
    20  C    0.016979
    21  C   -0.002596
    22  C   -0.002002
    23  C    0.019329
    24  C    0.012816
    25  C    0.003610
    26  N    0.084303
    27  N    0.059683
    28  N    0.095119
    29  N    0.103114
    30  C   -0.009990
    31  C   -0.009252
    32  C   -0.000659
    33  C    0.003078
    34  C    0.000932
    35  C   -0.009694
    36  C    0.000547
    37  C   -0.007196
    38  C    0.011422
    39  C   -0.002190
    40  C    0.013406
    41  C   -0.003755
    42  C    0.009053
    43  C    0.016238
    44  C   -0.003738
    45  C    0.018839
    46  C   -0.004475
    47  C    0.012310
    48  C    0.022484
    49  C   -0.009875
    50  C    0.030529
    51  C   -0.010477
    52  C    0.025081
    53  C    0.014193
    54  C   -0.006064
    55  C    0.017683
    56  C   -0.006351
    57  C    0.015155
    58  C    0.023552
    59  C   -0.011180
    60  C    0.043605
    61  C   -0.011178
    62  C    0.022354
    63  C    0.026206
    64  C   -0.007456
    65  C    0.030908
    66  C   -0.005744
    67  C    0.018454
    68  C    0.019065
    69  C   -0.007387
    70  C    0.028645
    71  C   -0.007296
    72  C    0.025305
    73  C    0.029763
    74  C   -0.014386
    75  C    0.055896
    76  C   -0.013505
    77  C    0.026518
    78  H   -0.000293
    79  H   -0.000244
    80  H   -0.000883
    81  H    0.000112
    82  H   -0.000020
    83  H   -0.000809
    84  H    0.000030
    85  H   -0.000974
    86  H   -0.000004
    87  H   -0.000975
    88  H   -0.000196
    89  H   -0.000304
    90  O    0.012846
    91  C   -0.001033
    92  O    0.015620
    93  C   -0.001247
    94  O    0.006789
    95  O    0.009407
    96  C   -0.000758
    97  C   -0.000546
    98  H    0.000221
    99  H   -0.000455
   100  H   -0.000760
   101  H    0.000163
   102  H    0.000092
   103  H   -0.000540
   104  H    0.000235
   105  H   -0.000579
   106  H   -0.001109
   107  H    0.000253
   108  H    0.000339
   109  H   -0.000899
   110  H    0.000279
   111  H   -0.001244
   112  H    0.000169
   113  H   -0.000835
   114  H    0.001121
   115  H    0.001153
   116  H   -0.000020
   117  H    0.000689
   118  H    0.000691
   119  H   -0.000013
   120  H   -0.000009
   121  H    0.000499
   122  H    0.000492
   123  H    0.000944
   124  H    0.000952
   125  H   -0.000018
   126  O   -0.000264
   127  H   -0.000996
   128  H   -0.001744
   129  O   -0.000280
   130  H   -0.001034
   131  H   -0.001330
   132  O   -0.000537
   133  H   -0.002229
   134  O    0.000002
   135  H   -0.001151
   136  O   -0.000795
   137  H   -0.000556
   138  H   -0.000719
   139  O   -0.000777
   140  H   -0.000692
   141  H   -0.001031
   142  O   -0.001350
   143  H   -0.001241
   144  O   -0.001327
   145  H   -0.000884
   146  C    0.000081
   147  C    0.000083
   148  C    0.000125
   149  C    0.000082
   150  H    0.000002
   151  H   -0.000063
   152  H   -0.000053
   153  H   -0.000002
   154  H   -0.000058
   155  H   -0.000061
   156  H   -0.000005
   157  H   -0.000101
   158  H   -0.000097
   159  H    0.000002
   160  H   -0.000072
   161  H   -0.000063
   162  C    0.000090
   163  H   -0.000008
   164  H   -0.000059
   165  H   -0.000065
   166  C    0.000083
   167  H    0.000012
   168  H   -0.000110
   169  H   -0.000084
   170  C    0.000137
   171  H   -0.000049
   172  H   -0.000082
   173  H    0.000001
   174  C    0.000142
   175  H   -0.000003
   176  H   -0.000113
   177  H   -0.000105
 Sum of Mulliken atomic spin densities =   1.00000
 Electronic spatial extent (au):  <R**2>=         122627.5383
 Charge=              1.0000 electrons
 Dipole moment (field-independent basis, Debye):
    X=             -3.5483    Y=             -3.7272    Z=              1.2630  Tot=              5.2988
 Quadrupole moment (field-independent basis, Debye-Ang):
   XX=           -376.5649   YY=           -436.5897   ZZ=           -494.2938
   XY=             21.3711   XZ=             28.6583   YZ=              6.8240
 Traceless Quadrupole moment (field-independent basis, Debye-Ang):
   XX=             59.2512   YY=             -0.7736   ZZ=            -58.4777
   XY=             21.3711   XZ=             28.6583   YZ=              6.8240
 Octapole moment (field-independent basis, Debye-Ang**2):
  XXX=           -766.5125  YYY=           -244.6035  ZZZ=             36.6520  XYY=            340.3884
  XXY=           -149.4171  XXZ=            -16.8777  XZZ=            -17.3036  YZZ=           -185.9074
  YYZ=             61.2303  XYZ=            -50.0366
 Hexadecapole moment (field-independent basis, Debye-Ang**3):
 XXXX=         -64769.6767 YYYY=         -56775.2307 ZZZZ=         -19644.8536 XXXY=           1723.9554
 XXXZ=           3365.4236 YYYX=           1184.6275 YYYZ=            711.2104 ZZZX=            926.7241
 ZZZY=           -509.6676 XXYY=         -17818.0812 XXZZ=         -13352.7243 YYZZ=         -11258.5668
 XXYZ=           -552.6206 YYXZ=            607.4989 ZZXY=            -71.9306
 N-N= 1.925829865186D+04 E-N=-7.305275514505D+04  KE= 6.566013311669D+03
 Leave Link  601 at Tue Jan 27 18:33:05 2015, MaxMem= 2147483648 cpu:     125.5
 (Enter /opt/g09/l9999.exe)
 1\1\GINC-CHPC-SCANDIUM\SP\UB3LYP\CC-pVDZ\C85H76N4O12(1+,2)\JARVIST\27-
 Jan-2015\0\\#p sp B3LYP/cc-pVDZ\\Auto Spiro; and yes I said yes I will
  Yes.\\1,2\C,0,-0.059352,0.221691,0.141608\C,0,-0.847829,1.120118,1.10
 4247\C,0,-0.631856,0.71913,2.43892\C,0,0.362018,-0.356917,2.452526\C,0
 ,0.724379,-0.654543,1.124824\C,0,-1.005466,-0.587244,-0.762209\C,0,-0.
 731401,-0.330294,-2.11781\C,0,0.41054,0.580811,-2.20281\C,0,0.819124,0
 .926423,-0.898047\C,0,-2.021671,-1.4516,-0.385547\C,0,-2.787451,-2.087
 106,-1.38081\C,0,-2.51476,-1.826159,-2.737458\C,0,-1.498856,-0.94931,-
 3.107878\C,0,0.963335,-1.055782,3.501856\C,0,1.913562,-2.034273,3.2191
 02\C,0,2.289783,-2.319182,1.892113\C,0,1.679708,-1.614601,0.835952\C,0
 ,-1.747561,2.13062,0.79956\C,0,-2.467323,2.744752,1.84004\C,0,-2.26184
 1,2.335344,3.168525\C,0,-1.345349,1.330233,3.473449\C,0,1.123024,1.054
 852,-3.306788\C,0,2.252667,1.841035,-3.09903\C,0,2.683509,2.160021,-1.
 799041\C,0,1.942203,1.715718,-0.688466\N,0,-3.809234,-3.004052,-1.0148
 73\N,0,3.290727,-3.28818,1.627293\N,0,-3.419256,3.764871,1.541965\N,0,
 3.897028,2.886058,-1.624842\C,0,5.082277,2.392055,-2.231559\C,0,-2.981
 515,4.953188,0.901191\C,0,3.910764,4.069868,-0.840859\C,0,-4.77627,3.5
 83871,1.915164\C,0,-3.532402,-3.972306,-0.002705\C,0,-5.064004,-2.9949
 14,-1.669245\C,0,4.431193,-3.373654,2.480235\C,0,3.199005,-4.135794,0.
 494509\C,0,4.858213,-4.608311,2.978539\C,0,5.981551,-4.704138,3.802651
 \C,0,6.683825,-3.54766,4.160332\C,0,6.254508,-2.30396,3.673293\C,0,5.1
 50624,-2.220069,2.836612\C,0,-4.422052,-4.178174,1.055985\C,0,-4.16156
 5,-5.13384,2.040883\C,0,-2.982082,-5.885187,1.987902\C,0,-2.078422,-5.
 674885,0.9358\C,0,-2.354614,-4.73735,-0.049872\C,0,-5.758925,-4.194513
 ,-1.882604\C,0,-7.001876,-4.172081,-2.516811\C,0,-7.570269,-2.972193,-
 2.967025\C,0,-6.858564,-1.783283,-2.752369\C,0,-5.624112,-1.783577,-2.
 101743\C,0,4.34536,-4.432613,-0.255403\C,0,4.246861,-5.269623,-1.36833
 4\C,0,3.017786,-5.819905,-1.758536\C,0,1.882563,-5.510587,-0.995684\C,
 0,1.963252,-4.683792,0.125167\C,0,-1.787295,5.554457,1.321709\C,0,-1.3
 49784,6.724235,0.689877\C,0,-2.091618,7.295933,-0.345532\C,0,-3.284298
 ,6.690291,-0.749777\C,0,-3.737803,5.515626,-0.138404\C,0,-5.376736,2.3
 20806,1.84056\C,0,-6.703851,2.125792,2.230552\C,0,-7.466116,3.206671,2
 .683547\C,0,-6.876368,4.477101,2.752254\C,0,-5.5508,4.661423,2.38578\C
 ,0,2.857419,4.997461,-0.929648\C,0,2.864671,6.159876,-0.170307\C,0,3.9
 3566,6.435424,0.69177\C,0,4.991252,5.522785,0.788384\C,0,4.967232,4.34
 6976,0.035624\C,0,5.307983,1.007785,-2.270729\C,0,6.465365,0.516936,-2
 .886766\C,0,7.403577,1.390669,-3.441435\C,0,7.172646,2.767077,-3.38515
 3\C,0,6.012618,3.280456,-2.793198\H,0,2.282495,1.956904,0.314406\H,0,-
 1.926037,2.438258,-0.22673\H,0,-2.831075,2.817013,3.957981\H,0,-1.1936
 04,1.030084,4.507214\H,0,0.694544,-0.850736,4.53508\H,0,2.379618,-2.58
 6257,4.028618\H,0,0.814011,0.80511,-4.318583\H,0,2.832404,2.201782,-3.
 942961\H,0,-1.299919,-0.76908,-4.16135\H,0,-3.107082,-2.323802,-3.4982
 86\H,0,1.967153,-1.822051,-0.189571\H,0,-2.232334,-1.646945,0.661384\O
 ,0,3.854229,7.611117,1.394722\C,0,4.925908,7.944358,2.260151\O,0,-8.77
 5707,3.132608,3.079137\C,0,-9.413565,1.869348,3.025897\O,0,7.786419,-3
 .521822,4.967312\O,0,-2.623913,-6.839345,2.900083\C,0,-3.495094,-7.079
 848,3.991334\C,0,8.264526,-4.751613,5.485594\H,0,6.81365,-1.416215,3.9
 52059\H,0,4.833331,-1.254741,2.454448\H,0,-5.334227,-3.591665,1.107238
 \H,0,-4.876565,-5.270334,2.844192\H,0,6.28639,-5.678778,4.166365\H,0,4
 .309243,-5.506914,2.714377\H,0,-1.16855,-6.26459,0.892405\H,0,-1.64608
 7,-4.594143,-0.859214\H,0,5.785549,3.63987,0.125719\H,0,5.828662,5.702
 076,1.453469\H,0,2.046264,6.869686,-0.237665\H,0,2.028209,4.802096,-1.
 602312\H,0,-7.129012,1.131003,2.159104\H,0,-4.801259,1.476287,1.475142
 \H,0,-7.474106,5.30813,3.114404\H,0,-5.104592,5.647759,2.460387\H,0,-8
 .916745,1.135802,3.675796\H,0,-9.445893,1.473314,2.001553\H,0,-10.4333
 74,2.031317,3.381047\H,0,-4.481,-7.428634,3.654599\H,0,-3.625678,-6.18
 249,4.611324\H,0,-3.02154,-7.862585,4.587258\H,0,9.139402,-4.503005,6.
 089328\H,0,8.562095,-5.44059,4.683612\H,0,7.51453,-5.242572,6.120427\H
 ,0,5.874615,8.031858,1.713552\H,0,5.043938,7.205482,3.064598\H,0,4.671
 404,8.912597,2.695732\O,0,-3.940942,7.319946,-1.770452\H,0,-4.64982,5.
 02582,-0.452928\H,0,-1.752842,8.207417,-0.823955\O,0,-0.20844,7.391497
 ,1.038636\H,0,-1.232244,5.109615,2.136387\H,0,4.586488,0.342476,-1.816
 955\O,0,6.771448,-0.811023,-2.975288\H,0,8.302532,1.00547,-3.908095\O,
 0,8.140707,3.545181,-3.958387\H,0,5.812838,4.343177,-2.767425\O,0,5.41
 9903,-5.481138,-2.042153\H,0,5.312125,-4.023386,0.011601\H,0,2.946653,
 -6.462189,-2.62428\O,0,0.632401,-5.99806,-1.270461\H,0,1.065583,-4.479
 617,0.696364\H,0,-5.119681,-0.839469,-1.936971\O,0,-7.313281,-0.550957
 ,-3.135643\H,0,-8.529466,-2.963499,-3.463921\O,0,-7.59585,-5.39515,-2.
 674323\H,0,-5.348683,-5.146229,-1.568668\C,0,7.976557,4.952814,-3.9310
 12\C,0,5.401898,-6.31031,-3.192413\C,0,-8.840403,-5.461668,-3.346915\C
 ,0,-5.167153,6.769857,-2.221782\H,0,8.863752,5.366457,-4.4149\H,0,7.91
 2594,5.334305,-2.903288\H,0,7.082618,5.268629,-4.485423\H,0,6.429662,-
 6.334359,-3.559358\H,0,4.74811,-5.903652,-3.975473\H,0,5.081069,-7.332
 056,-2.949258\H,0,-9.113351,-6.518696,-3.367996\H,0,-8.766539,-5.08738
 6,-4.377041\H,0,-9.620529,-4.899069,-2.816042\H,0,-5.519168,7.43465,-3
 .013261\H,0,-5.915351,6.733487,-1.418914\H,0,-5.032291,5.759874,-2.631
 416\C,0,0.469076,-6.884799,-2.365733\H,0,-0.589628,-7.149288,-2.378418
 \H,0,1.069567,-7.79545,-2.240225\H,0,0.73353,-6.404752,-3.317101\C,0,5
 .866005,-1.748831,-2.410516\H,0,6.294338,-2.736531,-2.588863\H,0,4.877
 693,-1.692534,-2.885016\H,0,5.750741,-1.597625,-1.329582\C,0,0.484965,
 6.969911,2.207241\H,0,1.344931,7.63416,2.298476\H,0,0.846309,5.938859,
 2.113524\H,0,-0.154095,7.05327,3.096208\C,0,-8.572118,-0.462962,-3.778
 437\H,0,-8.729922,0.597722,-3.983804\H,0,-9.383854,-0.830566,-3.135868
 \H,0,-8.584764,-1.019148,-4.725671\\Version=EM64L-G09RevA.02\State=2-A
 \HF=-4406.439377\S2=0.75539\S2-1=0.\S2A=0.750029\RMSD=3.328e-09\Dipole
 =-1.3960157,-1.4663923,0.4968926\Quadrupole=44.0518479,-0.5751325,-43.
 4767154,15.8889209,21.3067351,5.0734931\PG=C01 [X(C85H76N4O12)]\\@


 IF IT'S NOT TRUE, IT'S WELL INVENTED -- DANTE
 Job cpu time:  1 days  4 hours 56 minutes 20.0 seconds.
 File lengths (MBytes):  RWF=   2994 Int=      0 D2E=      0 Chk=    149 Scr=      1
 Normal termination of Gaussian 09 at Tue Jan 27 18:33:05 2015.
