 Entering Gaussian System, Link 0=g09
 Input=sp_4_B3LYP_cc-pVDZ.com
 Output=sp_4_B3LYP_cc-pVDZ.log
 Initial command:
 /opt/g09/l1.exe /home/jarvist/2014-07_SPIRO/b3lyp-631gs_opt/delta_scf/cation/Gau-17457.inp -scrdir=/home/jarvist/2014-07_SPIRO/b3lyp-631gs_opt/delta_scf/cation/
 Default is to use a total of   8 processors:
                                8 via shared-memory
                                1 via Linda
 Entering Link 1 = /opt/g09/l1.exe PID=     17459.
  
 Copyright (c) 1988,1990,1992,1993,1995,1998,2003,2009, Gaussian, Inc.
                  All Rights Reserved.
  
 This is part of the Gaussian(R) 09 program.  It is based on
 the Gaussian(R) 03 system (copyright 2003, Gaussian, Inc.),
 the Gaussian(R) 98 system (copyright 1998, Gaussian, Inc.),
 the Gaussian(R) 94 system (copyright 1995, Gaussian, Inc.),
 the Gaussian 92(TM) system (copyright 1992, Gaussian, Inc.),
 the Gaussian 90(TM) system (copyright 1990, Gaussian, Inc.),
 the Gaussian 88(TM) system (copyright 1988, Gaussian, Inc.),
 the Gaussian 86(TM) system (copyright 1986, Carnegie Mellon
 University), and the Gaussian 82(TM) system (copyright 1983,
 Carnegie Mellon University). Gaussian is a federally registered
 trademark of Gaussian, Inc.
  
 This software contains proprietary and confidential information,
 including trade secrets, belonging to Gaussian, Inc.
  
 This software is provided under written license and may be
 used, copied, transmitted, or stored only in accord with that
 written license.
  
 The following legend is applicable only to US Government
 contracts under FAR:
  
                    RESTRICTED RIGHTS LEGEND
  
 Use, reproduction and disclosure by the US Government is
 subject to restrictions as set forth in subparagraphs (a)
 and (c) of the Commercial Computer Software - Restricted
 Rights clause in FAR 52.227-19.
  
 Gaussian, Inc.
 340 Quinnipiac St., Bldg. 40, Wallingford CT 06492
  
  
 ---------------------------------------------------------------
 Warning -- This program may not be used in any manner that
 competes with the business of Gaussian, Inc. or will provide
 assistance to any competitor of Gaussian, Inc.  The licensee
 of this program is prohibited from giving any competitor of
 Gaussian, Inc. access to this program.  By using this program,
 the user acknowledges that Gaussian, Inc. is engaged in the
 business of creating and licensing software in the field of
 computational chemistry and represents and warrants to the
 licensee that it is not a competitor of Gaussian, Inc. and that
 it will not use this program in any manner prohibited above.
 ---------------------------------------------------------------
  

 Cite this work as:
 Gaussian 09, Revision A.02,
 M. J. Frisch, G. W. Trucks, H. B. Schlegel, G. E. Scuseria, 
 M. A. Robb, J. R. Cheeseman, G. Scalmani, V. Barone, B. Mennucci, 
 G. A. Petersson, H. Nakatsuji, M. Caricato, X. Li, H. P. Hratchian, 
 A. F. Izmaylov, J. Bloino, G. Zheng, J. L. Sonnenberg, M. Hada, 
 M. Ehara, K. Toyota, R. Fukuda, J. Hasegawa, M. Ishida, T. Nakajima, 
 Y. Honda, O. Kitao, H. Nakai, T. Vreven, J. A. Montgomery, Jr., 
 J. E. Peralta, F. Ogliaro, M. Bearpark, J. J. Heyd, E. Brothers, 
 K. N. Kudin, V. N. Staroverov, R. Kobayashi, J. Normand, 
 K. Raghavachari, A. Rendell, J. C. Burant, S. S. Iyengar, J. Tomasi, 
 M. Cossi, N. Rega, J. M. Millam, M. Klene, J. E. Knox, J. B. Cross, 
 V. Bakken, C. Adamo, J. Jaramillo, R. Gomperts, R. E. Stratmann, 
 O. Yazyev, A. J. Austin, R. Cammi, C. Pomelli, J. W. Ochterski, 
 R. L. Martin, K. Morokuma, V. G. Zakrzewski, G. A. Voth, 
 P. Salvador, J. J. Dannenberg, S. Dapprich, A. D. Daniels, 
 O. Farkas, J. B. Foresman, J. V. Ortiz, J. Cioslowski, 
 and D. J. Fox, Gaussian, Inc., Wallingford CT, 2009.
 
 ******************************************
 Gaussian 09:  EM64L-G09RevA.02 11-Jun-2009
                27-Jan-2015 
 ******************************************
 %mem=16GB
 %nprocs=24
 Will use up to   24 processors via shared memory.
 Default route:  MaxDisk=100GB
 -------------------
 #p sp B3LYP/cc-pVDZ
 -------------------
 1/38=1/1;
 2/12=2,17=6,18=5,40=1/2;
 3/5=16,11=2,16=1,25=1,30=1,74=-5/1,2,3;
 4//1;
 5/5=2,38=5/2;
 6/7=2,8=2,9=2,10=2,28=1/1;
 99/5=1,9=1/99;
 Leave Link    1 at Tue Jan 27 18:33:05 2015, MaxMem= 2147483648 cpu:       1.6
 (Enter /opt/g09/l101.exe)
 ------------------------------------------
 Auto Spiro; and yes I said yes I will Yes.
 ------------------------------------------
 Symbolic Z-matrix:
 Charge =  1 Multiplicity = 2
 C                    -0.04498  -0.03002  -0.1131 
 C                     0.72298  -0.92181   0.86972 
 C                     0.41297  -0.57376   2.19924 
 C                    -0.55239   0.52718   2.18557 
 C                    -0.83477   0.86646   0.84782 
 C                     0.85976   0.74817  -1.07557 
 C                     0.53632   0.44508  -2.41263 
 C                    -0.56873  -0.51559  -2.42402 
 C                    -0.92542  -0.81252  -1.09436 
 C                     1.88398   1.62801  -0.76385 
 C                     2.60564   2.24127  -1.80567 
 C                     2.27229   1.94929  -3.14216 
 C                     1.25283   1.0506   -3.44789 
 C                    -1.18156   1.22586   3.2186 
 C                    -2.07106   2.25233   2.91019 
 C                    -2.36009   2.5869    1.573 
 C                    -1.73187   1.87429   0.5328 
 C                     1.62531  -1.93288   0.58054 
 C                     2.23135  -2.63751   1.63854 
 C                     1.9148   -2.29503   2.96687 
 C                     1.01943  -1.2661    3.25005 
 C                    -1.25925  -1.12635  -3.4739 
 C                    -2.28507  -2.0241   -3.1897 
 C                    -2.65107  -2.3116   -1.86021 
 C                    -1.95656  -1.69167  -0.80373 
 N                     3.65095   3.15667  -1.50869 
 N                    -3.28984   3.6194    1.28423 
 N                     3.16799  -3.67287   1.37522 
 N                    -3.6997   -3.22858  -1.58751 
 C                    -4.88227  -3.2284   -2.37366 
 C                     2.94904  -4.60634   0.33023 
 C                    -3.56629  -4.1513   -0.51001 
 C                     4.35     -3.76039   2.16731 
 C                     3.46865   4.10884  -0.46357 
 C                     4.86051   3.13488  -2.24758 
 C                    -4.47011   3.73505   2.07755 
 C                    -3.07191   4.5197    0.21061 
 C                    -4.85271   4.9666    2.61848 
 C                    -6.0127    5.08833   3.38655 
 C                    -6.79854   3.95973   3.64551 
 C                    -6.41491   2.71862   3.11618 
 C                    -5.27309   2.61074   2.33482 
 C                     4.46466   4.3246    0.49444 
 C                     4.29629   5.26548   1.51256 
 C                     3.10389   5.99215   1.60073 
 C                     2.09405   5.77174   0.65231 
 C                     2.27853   4.85124  -0.37023 
 C                     5.52073   4.32833  -2.5594 
 C                     6.72794   4.31012  -3.26799 
 C                     7.2822    3.09795  -3.69477 
 C                     6.60754   1.91146  -3.38803 
 C                     5.41906   1.91176  -2.66921 
 C                    -4.14906   4.97045  -0.55941 
 C                    -3.94669   5.88015  -1.60415 
 C                    -2.65941   6.33736  -1.907 
 C                    -1.5882    5.87174  -1.13717 
 C                    -1.77437   4.98301  -0.08564 
 C                     1.65965  -5.0791    0.04692 
 C                     1.47719  -6.00161  -0.98503 
 C                     2.54986  -6.47825  -1.73008 
 C                     3.83981  -6.00961  -1.44198 
 C                     4.04077  -5.0719   -0.42662 
 C                     5.1348   -2.62866   2.41159 
 C                     6.28482  -2.70323   3.20102 
 C                     6.68029  -3.93153   3.74198 
 C                     5.90452  -5.07375   3.49267 
 C                     4.75085  -4.98679   2.72646 
 C                    -2.37919  -4.88469  -0.33514 
 C                    -2.24818  -5.78343   0.7145 
 C                    -3.3083   -5.99135   1.6097 
 C                    -4.49739  -5.27367   1.44068 
 C                    -4.6132   -4.35426   0.39563 
 C                    -5.45969  -2.02466  -2.79927 
 C                    -6.62207  -2.0544   -3.57218 
 C                    -7.23163  -3.25586  -3.91483 
 C                    -6.65679  -4.46054  -3.48288 
 C                    -5.48353  -4.45134  -2.72566 
 H                    -2.23495  -1.9047    0.22363 
 H                     1.87017  -2.18501  -0.44648 
 H                     2.37987  -2.84669   3.77745 
 H                     0.79047  -1.02169   4.28433 
 H                    -0.97562   0.98761   4.25915 
 H                    -2.55307   2.80835   3.70759 
 H                    -0.99518  -0.92196  -4.50845 
 H                    -2.81571  -2.51354  -3.99976 
 H                     1.0141    0.84142  -4.48763 
 H                     2.82318   2.43543  -3.94077 
 H                    -1.95706   2.1167   -0.50092 
 H                     2.1367    1.84722   0.26894 
 O                    -3.08135  -6.9071    2.59894 
 C                    -4.11377  -7.14109   3.54128 
 O                     7.78967  -4.12339   4.51797 
 C                     8.60661  -3.00097   4.80389 
 O                    -7.94402   3.96009   4.39196 
 O                     2.82838   6.92838   2.55802 
 C                     3.8127    7.18185   3.54555 
 C                    -8.3782    5.18947   4.94789 
 H                    -7.03806   1.85296   3.31824 
 H                    -4.99089   1.64873   1.9184 
 H                     5.38819   3.75681   0.43929 
 H                     5.09346   5.40848   2.23324 
 H                    -6.28103   6.06022   3.78487 
 H                    -4.24086   5.84342   2.43026 
 H                     1.17528   6.34512   0.72969 
 H                     1.49383   4.69334  -1.10372 
 H                    -5.53402  -3.79142   0.27857 
 H                    -5.3319   -5.40513   2.12018 
 H                    -1.33247  -6.34982   0.85476 
 H                    -1.55489  -4.73739  -1.02619 
 H                     6.86503  -1.80351   3.37191 
 H                     4.83952  -1.67487   1.98526 
 H                     6.21778  -6.01856   3.92615 
 H                     4.14942  -5.8733    2.55078 
 H                     8.05215  -2.22495   5.34878 
 H                     9.0292   -2.5636    3.88912 
 H                     9.418    -3.37236   5.43279 
 H                     4.74575   7.55453   3.10139 
 H                     4.03183   6.28373   4.13877 
 H                     3.39297   7.95006   4.19786 
 H                    -9.2968    4.96471   5.49333 
 H                    -8.59291   5.93314   4.1685 
 H                    -7.63641   5.60396   5.64397 
 H                    -5.02242  -7.52727   3.05952 
 H                    -4.36485  -6.23025   4.10141 
 H                    -3.72578  -7.89257   4.23156 
 O                     4.84119  -6.51874  -2.22087 
 H                     5.02886  -4.68834  -0.20812 
 H                     2.41909  -7.20357  -2.52616 
 H                     0.47671  -6.36943  -1.19886 
 H                     0.81473  -4.72987   0.62991 
 H                    -5.00477  -1.08008  -2.52242 
 H                    -7.06758  -1.11787  -3.89741 
 H                    -8.14107  -3.29013  -4.5055 
 O                    -7.31016  -5.59817  -3.86755 
 H                    -5.01858  -5.3734   -2.40135 
 O                    -5.07804   6.24914  -2.27844 
 H                    -5.15747   4.62528  -0.36212 
 H                    -2.48198   7.03824  -2.71378 
 H                    -0.5864    6.23109  -1.35938 
 H                    -0.93125   4.64751   0.50789 
 H                     4.92177   0.97962  -2.42566 
 H                     7.03433   0.96409  -3.70751 
 H                     8.21302   3.06419  -4.248 
 O                     7.27854   5.5396   -3.50607 
 H                     5.11184   5.28595  -2.25803 
 C                    -6.77973  -6.84906  -3.46233 
 C                    -4.94211   7.13335  -3.3778 
 C                     8.48044   5.60042  -4.25455 
 C                     6.17025  -6.09093  -1.97431 
 H                    -7.45771  -7.60539  -3.86275 
 H                    -6.74168  -6.9383   -2.36847 
 H                    -5.77322  -7.01356  -3.86982 
 H                    -5.94993   7.27894  -3.77171 
 H                    -4.30394   6.70757  -4.16368 
 H                    -4.531     8.10408  -3.06939 
 H                     8.72927   6.66034  -4.33651 
 H                     8.35322   5.17949  -5.26102 
 H                     9.30119   5.07482  -3.74795 
 H                     6.79573  -6.63218  -2.68698 
 H                     6.4913   -6.33299  -0.95245 
 H                     6.28562  -5.01121  -2.13925 
 
 NAtoms=    161 NQM=    161 NQMF=      0 NMic=      0 NMicF=      0 NTot=    161.
                    Isotopes and Nuclear Properties:
 (Nuclear quadrupole moments (NQMom) in fm**2, nuclear magnetic moments (NMagM)
  in nuclear magnetons)

  Atom         1           2           3           4           5           6           7           8           9          10
 IAtWgt=          12          12          12          12          12          12          12          12          12          12
 AtmWgt=  12.0000000  12.0000000  12.0000000  12.0000000  12.0000000  12.0000000  12.0000000  12.0000000  12.0000000  12.0000000
 NucSpn=           0           0           0           0           0           0           0           0           0           0
 AtZEff=   0.0000000   0.0000000   0.0000000   0.0000000   0.0000000   0.0000000   0.0000000   0.0000000   0.0000000   0.0000000
 NQMom=    0.0000000   0.0000000   0.0000000   0.0000000   0.0000000   0.0000000   0.0000000   0.0000000   0.0000000   0.0000000
 NMagM=    0.0000000   0.0000000   0.0000000   0.0000000   0.0000000   0.0000000   0.0000000   0.0000000   0.0000000   0.0000000

  Atom        11          12          13          14          15          16          17          18          19          20
 IAtWgt=          12          12          12          12          12          12          12          12          12          12
 AtmWgt=  12.0000000  12.0000000  12.0000000  12.0000000  12.0000000  12.0000000  12.0000000  12.0000000  12.0000000  12.0000000
 NucSpn=           0           0           0           0           0           0           0           0           0           0
 AtZEff=   0.0000000   0.0000000   0.0000000   0.0000000   0.0000000   0.0000000   0.0000000   0.0000000   0.0000000   0.0000000
 NQMom=    0.0000000   0.0000000   0.0000000   0.0000000   0.0000000   0.0000000   0.0000000   0.0000000   0.0000000   0.0000000
 NMagM=    0.0000000   0.0000000   0.0000000   0.0000000   0.0000000   0.0000000   0.0000000   0.0000000   0.0000000   0.0000000

  Atom        21          22          23          24          25          26          27          28          29          30
 IAtWgt=          12          12          12          12          12          14          14          14          14          12
 AtmWgt=  12.0000000  12.0000000  12.0000000  12.0000000  12.0000000  14.0030740  14.0030740  14.0030740  14.0030740  12.0000000
 NucSpn=           0           0           0           0           0           2           2           2           2           0
 AtZEff=   0.0000000   0.0000000   0.0000000   0.0000000   0.0000000   0.0000000   0.0000000   0.0000000   0.0000000   0.0000000
 NQMom=    0.0000000   0.0000000   0.0000000   0.0000000   0.0000000   2.0440000   2.0440000   2.0440000   2.0440000   0.0000000
 NMagM=    0.0000000   0.0000000   0.0000000   0.0000000   0.0000000   0.4037610   0.4037610   0.4037610   0.4037610   0.0000000

  Atom        31          32          33          34          35          36          37          38          39          40
 IAtWgt=          12          12          12          12          12          12          12          12          12          12
 AtmWgt=  12.0000000  12.0000000  12.0000000  12.0000000  12.0000000  12.0000000  12.0000000  12.0000000  12.0000000  12.0000000
 NucSpn=           0           0           0           0           0           0           0           0           0           0
 AtZEff=   0.0000000   0.0000000   0.0000000   0.0000000   0.0000000   0.0000000   0.0000000   0.0000000   0.0000000   0.0000000
 NQMom=    0.0000000   0.0000000   0.0000000   0.0000000   0.0000000   0.0000000   0.0000000   0.0000000   0.0000000   0.0000000
 NMagM=    0.0000000   0.0000000   0.0000000   0.0000000   0.0000000   0.0000000   0.0000000   0.0000000   0.0000000   0.0000000

  Atom        41          42          43          44          45          46          47          48          49          50
 IAtWgt=          12          12          12          12          12          12          12          12          12          12
 AtmWgt=  12.0000000  12.0000000  12.0000000  12.0000000  12.0000000  12.0000000  12.0000000  12.0000000  12.0000000  12.0000000
 NucSpn=           0           0           0           0           0           0           0           0           0           0
 AtZEff=   0.0000000   0.0000000   0.0000000   0.0000000   0.0000000   0.0000000   0.0000000   0.0000000   0.0000000   0.0000000
 NQMom=    0.0000000   0.0000000   0.0000000   0.0000000   0.0000000   0.0000000   0.0000000   0.0000000   0.0000000   0.0000000
 NMagM=    0.0000000   0.0000000   0.0000000   0.0000000   0.0000000   0.0000000   0.0000000   0.0000000   0.0000000   0.0000000

  Atom        51          52          53          54          55          56          57          58          59          60
 IAtWgt=          12          12          12          12          12          12          12          12          12          12
 AtmWgt=  12.0000000  12.0000000  12.0000000  12.0000000  12.0000000  12.0000000  12.0000000  12.0000000  12.0000000  12.0000000
 NucSpn=           0           0           0           0           0           0           0           0           0           0
 AtZEff=   0.0000000   0.0000000   0.0000000   0.0000000   0.0000000   0.0000000   0.0000000   0.0000000   0.0000000   0.0000000
 NQMom=    0.0000000   0.0000000   0.0000000   0.0000000   0.0000000   0.0000000   0.0000000   0.0000000   0.0000000   0.0000000
 NMagM=    0.0000000   0.0000000   0.0000000   0.0000000   0.0000000   0.0000000   0.0000000   0.0000000   0.0000000   0.0000000

  Atom        61          62          63          64          65          66          67          68          69          70
 IAtWgt=          12          12          12          12          12          12          12          12          12          12
 AtmWgt=  12.0000000  12.0000000  12.0000000  12.0000000  12.0000000  12.0000000  12.0000000  12.0000000  12.0000000  12.0000000
 NucSpn=           0           0           0           0           0           0           0           0           0           0
 AtZEff=   0.0000000   0.0000000   0.0000000   0.0000000   0.0000000   0.0000000   0.0000000   0.0000000   0.0000000   0.0000000
 NQMom=    0.0000000   0.0000000   0.0000000   0.0000000   0.0000000   0.0000000   0.0000000   0.0000000   0.0000000   0.0000000
 NMagM=    0.0000000   0.0000000   0.0000000   0.0000000   0.0000000   0.0000000   0.0000000   0.0000000   0.0000000   0.0000000

  Atom        71          72          73          74          75          76          77          78          79          80
 IAtWgt=          12          12          12          12          12          12          12           1           1           1
 AtmWgt=  12.0000000  12.0000000  12.0000000  12.0000000  12.0000000  12.0000000  12.0000000   1.0078250   1.0078250   1.0078250
 NucSpn=           0           0           0           0           0           0           0           1           1           1
 AtZEff=   0.0000000   0.0000000   0.0000000   0.0000000   0.0000000   0.0000000   0.0000000   0.0000000   0.0000000   0.0000000
 NQMom=    0.0000000   0.0000000   0.0000000   0.0000000   0.0000000   0.0000000   0.0000000   0.0000000   0.0000000   0.0000000
 NMagM=    0.0000000   0.0000000   0.0000000   0.0000000   0.0000000   0.0000000   0.0000000   2.7928460   2.7928460   2.7928460

  Atom        81          82          83          84          85          86          87          88          89          90
 IAtWgt=           1           1           1           1           1           1           1           1           1          16
 AtmWgt=   1.0078250   1.0078250   1.0078250   1.0078250   1.0078250   1.0078250   1.0078250   1.0078250   1.0078250  15.9949146
 NucSpn=           1           1           1           1           1           1           1           1           1           0
 AtZEff=   0.0000000   0.0000000   0.0000000   0.0000000   0.0000000   0.0000000   0.0000000   0.0000000   0.0000000   0.0000000
 NQMom=    0.0000000   0.0000000   0.0000000   0.0000000   0.0000000   0.0000000   0.0000000   0.0000000   0.0000000   0.0000000
 NMagM=    2.7928460   2.7928460   2.7928460   2.7928460   2.7928460   2.7928460   2.7928460   2.7928460   2.7928460   0.0000000

  Atom        91          92          93          94          95          96          97          98          99         100
 IAtWgt=          12          16          12          16          16          12          12           1           1           1
 AtmWgt=  12.0000000  15.9949146  12.0000000  15.9949146  15.9949146  12.0000000  12.0000000   1.0078250   1.0078250   1.0078250
 NucSpn=           0           0           0           0           0           0           0           1           1           1
 AtZEff=   0.0000000   0.0000000   0.0000000   0.0000000   0.0000000   0.0000000   0.0000000   0.0000000   0.0000000   0.0000000
 NQMom=    0.0000000   0.0000000   0.0000000   0.0000000   0.0000000   0.0000000   0.0000000   0.0000000   0.0000000   0.0000000
 NMagM=    0.0000000   0.0000000   0.0000000   0.0000000   0.0000000   0.0000000   0.0000000   2.7928460   2.7928460   2.7928460

  Atom       101         102         103         104         105         106         107         108         109         110
 IAtWgt=           1           1           1           1           1           1           1           1           1           1
 AtmWgt=   1.0078250   1.0078250   1.0078250   1.0078250   1.0078250   1.0078250   1.0078250   1.0078250   1.0078250   1.0078250
 NucSpn=           1           1           1           1           1           1           1           1           1           1
 AtZEff=   0.0000000   0.0000000   0.0000000   0.0000000   0.0000000   0.0000000   0.0000000   0.0000000   0.0000000   0.0000000
 NQMom=    0.0000000   0.0000000   0.0000000   0.0000000   0.0000000   0.0000000   0.0000000   0.0000000   0.0000000   0.0000000
 NMagM=    2.7928460   2.7928460   2.7928460   2.7928460   2.7928460   2.7928460   2.7928460   2.7928460   2.7928460   2.7928460

  Atom       111         112         113         114         115         116         117         118         119         120
 IAtWgt=           1           1           1           1           1           1           1           1           1           1
 AtmWgt=   1.0078250   1.0078250   1.0078250   1.0078250   1.0078250   1.0078250   1.0078250   1.0078250   1.0078250   1.0078250
 NucSpn=           1           1           1           1           1           1           1           1           1           1
 AtZEff=   0.0000000   0.0000000   0.0000000   0.0000000   0.0000000   0.0000000   0.0000000   0.0000000   0.0000000   0.0000000
 NQMom=    0.0000000   0.0000000   0.0000000   0.0000000   0.0000000   0.0000000   0.0000000   0.0000000   0.0000000   0.0000000
 NMagM=    2.7928460   2.7928460   2.7928460   2.7928460   2.7928460   2.7928460   2.7928460   2.7928460   2.7928460   2.7928460

  Atom       121         122         123         124         125         126         127         128         129         130
 IAtWgt=           1           1           1           1           1          16           1           1           1           1
 AtmWgt=   1.0078250   1.0078250   1.0078250   1.0078250   1.0078250  15.9949146   1.0078250   1.0078250   1.0078250   1.0078250
 NucSpn=           1           1           1           1           1           0           1           1           1           1
 AtZEff=   0.0000000   0.0000000   0.0000000   0.0000000   0.0000000   0.0000000   0.0000000   0.0000000   0.0000000   0.0000000
 NQMom=    0.0000000   0.0000000   0.0000000   0.0000000   0.0000000   0.0000000   0.0000000   0.0000000   0.0000000   0.0000000
 NMagM=    2.7928460   2.7928460   2.7928460   2.7928460   2.7928460   0.0000000   2.7928460   2.7928460   2.7928460   2.7928460

  Atom       131         132         133         134         135         136         137         138         139         140
 IAtWgt=           1           1           1          16           1          16           1           1           1           1
 AtmWgt=   1.0078250   1.0078250   1.0078250  15.9949146   1.0078250  15.9949146   1.0078250   1.0078250   1.0078250   1.0078250
 NucSpn=           1           1           1           0           1           0           1           1           1           1
 AtZEff=   0.0000000   0.0000000   0.0000000   0.0000000   0.0000000   0.0000000   0.0000000   0.0000000   0.0000000   0.0000000
 NQMom=    0.0000000   0.0000000   0.0000000   0.0000000   0.0000000   0.0000000   0.0000000   0.0000000   0.0000000   0.0000000
 NMagM=    2.7928460   2.7928460   2.7928460   0.0000000   2.7928460   0.0000000   2.7928460   2.7928460   2.7928460   2.7928460

  Atom       141         142         143         144         145         146         147         148         149         150
 IAtWgt=           1           1           1          16           1          12          12          12          12           1
 AtmWgt=   1.0078250   1.0078250   1.0078250  15.9949146   1.0078250  12.0000000  12.0000000  12.0000000  12.0000000   1.0078250
 NucSpn=           1           1           1           0           1           0           0           0           0           1
 AtZEff=   0.0000000   0.0000000   0.0000000   0.0000000   0.0000000   0.0000000   0.0000000   0.0000000   0.0000000   0.0000000
 NQMom=    0.0000000   0.0000000   0.0000000   0.0000000   0.0000000   0.0000000   0.0000000   0.0000000   0.0000000   0.0000000
 NMagM=    2.7928460   2.7928460   2.7928460   0.0000000   2.7928460   0.0000000   0.0000000   0.0000000   0.0000000   2.7928460

  Atom       151         152         153         154         155         156         157         158         159         160
 IAtWgt=           1           1           1           1           1           1           1           1           1           1
 AtmWgt=   1.0078250   1.0078250   1.0078250   1.0078250   1.0078250   1.0078250   1.0078250   1.0078250   1.0078250   1.0078250
 NucSpn=           1           1           1           1           1           1           1           1           1           1
 AtZEff=   0.0000000   0.0000000   0.0000000   0.0000000   0.0000000   0.0000000   0.0000000   0.0000000   0.0000000   0.0000000
 NQMom=    0.0000000   0.0000000   0.0000000   0.0000000   0.0000000   0.0000000   0.0000000   0.0000000   0.0000000   0.0000000
 NMagM=    2.7928460   2.7928460   2.7928460   2.7928460   2.7928460   2.7928460   2.7928460   2.7928460   2.7928460   2.7928460

  Atom       161
 IAtWgt=           1
 AtmWgt=   1.0078250
 NucSpn=           1
 AtZEff=   0.0000000
 NQMom=    0.0000000
 NMagM=    2.7928460
 Leave Link  101 at Tue Jan 27 18:33:06 2015, MaxMem= 2147483648 cpu:       2.9
 (Enter /opt/g09/l202.exe)
 Stoichiometry    C81H68N4O8(1+,2)
 Framework group  C1[X(C81H68N4O8)]
 Deg. of freedom   477
 Full point group                 C1      NOp   1
 Largest Abelian subgroup         C1      NOp   1
 Largest concise Abelian subgroup C1      NOp   1
                         Standard orientation:                         
 ---------------------------------------------------------------------
 Center     Atomic      Atomic             Coordinates (Angstroms)
 Number     Number       Type             X           Y           Z
 ---------------------------------------------------------------------
      1          6           0       -0.044978   -0.030016   -0.113100
      2          6           0        0.722977   -0.921813    0.869724
      3          6           0        0.412972   -0.573761    2.199242
      4          6           0       -0.552392    0.527180    2.185568
      5          6           0       -0.834772    0.866458    0.847817
      6          6           0        0.859758    0.748170   -1.075572
      7          6           0        0.536319    0.445077   -2.412626
      8          6           0       -0.568733   -0.515585   -2.424020
      9          6           0       -0.925418   -0.812519   -1.094359
     10          6           0        1.883980    1.628013   -0.763846
     11          6           0        2.605637    2.241265   -1.805674
     12          6           0        2.272294    1.949288   -3.142161
     13          6           0        1.252825    1.050600   -3.447895
     14          6           0       -1.181563    1.225860    3.218597
     15          6           0       -2.071062    2.252328    2.910189
     16          6           0       -2.360093    2.586904    1.572999
     17          6           0       -1.731866    1.874293    0.532799
     18          6           0        1.625305   -1.932878    0.580544
     19          6           0        2.231349   -2.637514    1.638540
     20          6           0        1.914796   -2.295034    2.966872
     21          6           0        1.019426   -1.266104    3.250048
     22          6           0       -1.259251   -1.126347   -3.473902
     23          6           0       -2.285074   -2.024096   -3.189704
     24          6           0       -2.651071   -2.311600   -1.860211
     25          6           0       -1.956557   -1.691670   -0.803734
     26          7           0        3.650946    3.156670   -1.508690
     27          7           0       -3.289841    3.619404    1.284229
     28          7           0        3.167989   -3.672872    1.375218
     29          7           0       -3.699695   -3.228581   -1.587511
     30          6           0       -4.882269   -3.228401   -2.373662
     31          6           0        2.949035   -4.606341    0.330230
     32          6           0       -3.566290   -4.151299   -0.510010
     33          6           0        4.349998   -3.760392    2.167312
     34          6           0        3.468650    4.108841   -0.463568
     35          6           0        4.860506    3.134884   -2.247580
     36          6           0       -4.470105    3.735047    2.077546
     37          6           0       -3.071912    4.519695    0.210611
     38          6           0       -4.852715    4.966604    2.618475
     39          6           0       -6.012703    5.088329    3.386555
     40          6           0       -6.798543    3.959727    3.645509
     41          6           0       -6.414906    2.718619    3.116181
     42          6           0       -5.273090    2.610744    2.334824
     43          6           0        4.464658    4.324604    0.494444
     44          6           0        4.296290    5.265477    1.512560
     45          6           0        3.103887    5.992148    1.600731
     46          6           0        2.094049    5.771739    0.652311
     47          6           0        2.278527    4.851236   -0.370226
     48          6           0        5.520728    4.328325   -2.559398
     49          6           0        6.727935    4.310119   -3.267994
     50          6           0        7.282201    3.097946   -3.694765
     51          6           0        6.607541    1.911458   -3.388027
     52          6           0        5.419056    1.911757   -2.669214
     53          6           0       -4.149061    4.970445   -0.559406
     54          6           0       -3.946686    5.880152   -1.604148
     55          6           0       -2.659410    6.337361   -1.906998
     56          6           0       -1.588202    5.871739   -1.137171
     57          6           0       -1.774365    4.983015   -0.085643
     58          6           0        1.659645   -5.079102    0.046923
     59          6           0        1.477192   -6.001612   -0.985033
     60          6           0        2.549858   -6.478255   -1.730080
     61          6           0        3.839812   -6.009612   -1.441979
     62          6           0        4.040766   -5.071902   -0.426617
     63          6           0        5.134803   -2.628655    2.411593
     64          6           0        6.284822   -2.703225    3.201022
     65          6           0        6.680291   -3.931534    3.741982
     66          6           0        5.904520   -5.073749    3.492666
     67          6           0        4.750848   -4.986789    2.726461
     68          6           0       -2.379187   -4.884691   -0.335141
     69          6           0       -2.248175   -5.783431    0.714498
     70          6           0       -3.308301   -5.991345    1.609703
     71          6           0       -4.497394   -5.273665    1.440678
     72          6           0       -4.613200   -4.354258    0.395630
     73          6           0       -5.459687   -2.024661   -2.799271
     74          6           0       -6.622072   -2.054396   -3.572177
     75          6           0       -7.231635   -3.255862   -3.914833
     76          6           0       -6.656794   -4.460543   -3.482884
     77          6           0       -5.483531   -4.451340   -2.725656
     78          1           0       -2.234951   -1.904703    0.223631
     79          1           0        1.870168   -2.185008   -0.446483
     80          1           0        2.379867   -2.846692    3.777451
     81          1           0        0.790471   -1.021690    4.284329
     82          1           0       -0.975622    0.987606    4.259150
     83          1           0       -2.553073    2.808346    3.707590
     84          1           0       -0.995178   -0.921956   -4.508451
     85          1           0       -2.815706   -2.513539   -3.999761
     86          1           0        1.014103    0.841416   -4.487627
     87          1           0        2.823179    2.435432   -3.940771
     88          1           0       -1.957061    2.116702   -0.500918
     89          1           0        2.136697    1.847219    0.268943
     90          8           0       -3.081350   -6.907104    2.598941
     91          6           0       -4.113770   -7.141085    3.541279
     92          8           0        7.789672   -4.123387    4.517971
     93          6           0        8.606606   -3.000975    4.803893
     94          8           0       -7.944016    3.960086    4.391963
     95          8           0        2.828380    6.928384    2.558018
     96          6           0        3.812703    7.181852    3.545550
     97          6           0       -8.378205    5.189469    4.947888
     98          1           0       -7.038061    1.852957    3.318239
     99          1           0       -4.990890    1.648732    1.918402
    100          1           0        5.388185    3.756806    0.439285
    101          1           0        5.093462    5.408485    2.233243
    102          1           0       -6.281026    6.060218    3.784873
    103          1           0       -4.240864    5.843419    2.430264
    104          1           0        1.175278    6.345118    0.729693
    105          1           0        1.493826    4.693337   -1.103716
    106          1           0       -5.534024   -3.791421    0.278566
    107          1           0       -5.331904   -5.405128    2.120179
    108          1           0       -1.332470   -6.349822    0.854757
    109          1           0       -1.554890   -4.737387   -1.026195
    110          1           0        6.865033   -1.803512    3.371912
    111          1           0        4.839522   -1.674874    1.985261
    112          1           0        6.217782   -6.018561    3.926147
    113          1           0        4.149415   -5.873296    2.550783
    114          1           0        8.052147   -2.224947    5.348776
    115          1           0        9.029204   -2.563601    3.889116
    116          1           0        9.418001   -3.372356    5.432791
    117          1           0        4.745751    7.554527    3.101393
    118          1           0        4.031825    6.283731    4.138766
    119          1           0        3.392974    7.950056    4.197858
    120          1           0       -9.296796    4.964706    5.493332
    121          1           0       -8.592908    5.933143    4.168498
    122          1           0       -7.636406    5.603963    5.643973
    123          1           0       -5.022419   -7.527269    3.059525
    124          1           0       -4.364849   -6.230249    4.101406
    125          1           0       -3.725777   -7.892571    4.231563
    126          8           0        4.841194   -6.518742   -2.220868
    127          1           0        5.028857   -4.688336   -0.208124
    128          1           0        2.419095   -7.203566   -2.526161
    129          1           0        0.476711   -6.369432   -1.198859
    130          1           0        0.814734   -4.729870    0.629913
    131          1           0       -5.004768   -1.080075   -2.522424
    132          1           0       -7.067577   -1.117871   -3.897407
    133          1           0       -8.141069   -3.290133   -4.505500
    134          8           0       -7.310163   -5.598170   -3.867552
    135          1           0       -5.018579   -5.373400   -2.401349
    136          8           0       -5.078039    6.249140   -2.278442
    137          1           0       -5.157467    4.625276   -0.362118
    138          1           0       -2.481975    7.038243   -2.713780
    139          1           0       -0.586403    6.231090   -1.359377
    140          1           0       -0.931251    4.647509    0.507886
    141          1           0        4.921772    0.979623   -2.425662
    142          1           0        7.034332    0.964085   -3.707512
    143          1           0        8.213022    3.064191   -4.248000
    144          8           0        7.278540    5.539604   -3.506067
    145          1           0        5.111845    5.285953   -2.258026
    146          6           0       -6.779729   -6.849063   -3.462328
    147          6           0       -4.942106    7.133354   -3.377804
    148          6           0        8.480441    5.600417   -4.254552
    149          6           0        6.170254   -6.090928   -1.974311
    150          1           0       -7.457708   -7.605394   -3.862751
    151          1           0       -6.741680   -6.938303   -2.368465
    152          1           0       -5.773224   -7.013562   -3.869815
    153          1           0       -5.949928    7.278940   -3.771710
    154          1           0       -4.303935    6.707570   -4.163684
    155          1           0       -4.531002    8.104076   -3.069391
    156          1           0        8.729272    6.660336   -4.336507
    157          1           0        8.353215    5.179486   -5.261018
    158          1           0        9.301185    5.074822   -3.747945
    159          1           0        6.795732   -6.632177   -2.686981
    160          1           0        6.491299   -6.332993   -0.952454
    161          1           0        6.285619   -5.011209   -2.139250
 ---------------------------------------------------------------------
 Rotational constants (GHZ):      0.0161423      0.0150548      0.0103918
 Leave Link  202 at Tue Jan 27 18:33:06 2015, MaxMem= 2147483648 cpu:       0.2
 (Enter /opt/g09/l301.exe)
 Standard basis: CC-pVDZ (5D, 7F)
 Ernie: Thresh=  0.10000D-02 Tol=  0.10000D-05 Strict=F.
 Ernie:  186 primitive shells out of 2386 were deleted.
 There are  1642 symmetry adapted basis functions of A   symmetry.
 Integral buffers will be    131072 words long.
 Raffenetti 2 integral format.
 Two-electron integral symmetry is turned on.
  1642 basis functions,  3545 primitive gaussians,  1735 cartesian basis functions
   323 alpha electrons      322 beta electrons
       nuclear repulsion energy     16242.5341068453 Hartrees.
 IExCor=  402 DFT=T Ex+Corr=B3LYP ExCW=0 ScaHFX=  0.200000
 ScaDFX=  0.800000  0.720000  1.000000  0.810000 ScalE2=  1.000000  1.000000
 IRadAn=      0 IRanWt=     -1 IRanGd=            0 ICorTp=0
 NAtoms=  161 NActive=  161 NUniq=  161 SFac= 7.50D-01 NAtFMM=   80 NAOKFM=T Big=T
 Leave Link  301 at Tue Jan 27 18:33:06 2015, MaxMem= 2147483648 cpu:       2.0
 (Enter /opt/g09/l302.exe)
 NPDir=0 NMtPBC=     1 NCelOv=     1 NCel=       1 NClECP=     1 NCelD=      1
         NCelK=      1 NCelE2=     1 NClLst=     1 CellRange=     0.0.
 One-electron integrals computed using PRISM.
 NBasis=  1642 RedAO= T  NBF=  1642
 NBsUse=  1642 1.00D-06 NBFU=  1642
 Precomputing XC quadrature grid using
 IXCGrd= 2 IRadAn=           0 IRanWt=          -1 IRanGd=           0 AccXCQ= 1.00D-10.
 NRdTot=   10546 NPtTot=     1351736 NUsed=     1427664 NTot=     1427696
 NSgBfM=  1163  1183  1186  1206  1239 NAtAll=   161   155.
 Leave Link  302 at Tue Jan 27 18:33:26 2015, MaxMem= 2147483648 cpu:     492.7
 (Enter /opt/g09/l303.exe)
 DipDrv:  MaxL=1.
 Leave Link  303 at Tue Jan 27 18:33:28 2015, MaxMem= 2147483648 cpu:      37.9
 (Enter /opt/g09/l401.exe)
 Harris functional with IExCor=  402 diagonalized for initial guess.
 ExpMin= 1.22D-01 ExpMax= 1.17D+04 ExpMxC= 4.01D+02 IAcc=1 IRadAn=         1 AccDes= 0.00D+00
 HarFok:  IExCor=  402 AccDes= 0.00D+00 IRadAn=         1 IDoV= 1
 ScaDFX=  1.000000  1.000000  1.000000  1.000000
 FoFCou: FMM=F IPFlag=           0 FMFlag=      100000 FMFlg1=        2001
         NFxFlg=           0 DoJE=T BraDBF=F KetDBF=T FulRan=T
         Omega=  0.000000  0.000000  1.000000  0.000000  0.000000 ICntrl=     500 IOpCl=  0
         NMat0=    1 NMatS0=    1 NMatT0=    0 NMatD0=    1 NMtDS0=    0 NMtDT0=    0
         I1Cent=           4 NGrid=           0.
 Petite list used in FoFCou.
 Harris En= -3948.41736619584    
 Initial guess orbital symmetries:
 Alpha Orbitals:
       Occupied  (A) (A) (A) (A) (A) (A) (A) (A) (A) (A) (A) (A)
                 (A) (A) (A) (A) (A) (A) (A) (A) (A) (A) (A) (A)
                 (A) (A) (A) (A) (A) (A) (A) (A) (A) (A) (A) (A)
                 (A) (A) (A) (A) (A) (A) (A) (A) (A) (A) (A) (A)
                 (A) (A) (A) (A) (A) (A) (A) (A) (A) (A) (A) (A)
                 (A) (A) (A) (A) (A) (A) (A) (A) (A) (A) (A) (A)
                 (A) (A) (A) (A) (A) (A) (A) (A) (A) (A) (A) (A)
                 (A) (A) (A) (A) (A) (A) (A) (A) (A) (A) (A) (A)
                 (A) (A) (A) (A) (A) (A) (A) (A) (A) (A) (A) (A)
                 (A) (A) (A) (A) (A) (A) (A) (A) (A) (A) (A) (A)
                 (A) (A) (A) (A) (A) (A) (A) (A) (A) (A) (A) (A)
                 (A) (A) (A) (A) (A) (A) (A) (A) (A) (A) (A) (A)
                 (A) (A) (A) (A) (A) (A) (A) (A) (A) (A) (A) (A)
                 (A) (A) (A) (A) (A) (A) (A) (A) (A) (A) (A) (A)
                 (A) (A) (A) (A) (A) (A) (A) (A) (A) (A) (A) (A)
                 (A) (A) (A) (A) (A) (A) (A) (A) (A) (A) (A) (A)
                 (A) (A) (A) (A) (A) (A) (A) (A) (A) (A) (A) (A)
                 (A) (A) (A) (A) (A) (A) (A) (A) (A) (A) (A) (A)
                 (A) (A) (A) (A) (A) (A) (A) (A) (A) (A) (A) (A)
                 (A) (A) (A) (A) (A) (A) (A) (A) (A) (A) (A) (A)
                 (A) (A) (A) (A) (A) (A) (A) (A) (A) (A) (A) (A)
                 (A) (A) (A) (A) (A) (A) (A) (A) (A) (A) (A) (A)
                 (A) (A) (A) (A) (A) (A) (A) (A) (A) (A) (A) (A)
                 (A) (A) (A) (A) (A) (A) (A) (A) (A) (A) (A) (A)
                 (A) (A) (A) (A) (A) (A) (A) (A) (A) (A) (A) (A)
                 (A) (A) (A) (A) (A) (A) (A) (A) (A) (A) (A) (A)
                 (A) (A) (A) (A) (A) (A) (A) (A) (A) (A) (A)
       Virtual   (A) (A) (A) (A) (A) (A) (A) (A) (A) (A) (A) (A)
                 (A) (A) (A) (A) (A) (A) (A) (A) (A) (A) (A) (A)
                 (A) (A) (A) (A) (A) (A) (A) (A) (A) (A) (A) (A)
                 (A) (A) (A) (A) (A) (A) (A) (A) (A) (A) (A) (A)
                 (A) (A) (A) (A) (A) (A) (A) (A) (A) (A) (A) (A)
                 (A) (A) (A) (A) (A) (A) (A) (A) (A) (A) (A) (A)
                 (A) (A) (A) (A) (A) (A) (A) (A) (A) (A) (A) (A)
                 (A) (A) (A) (A) (A) (A) (A) (A) (A) (A) (A) (A)
                 (A) (A) (A) (A) (A) (A) (A) (A) (A) (A) (A) (A)
                 (A) (A) (A) (A) (A) (A) (A) (A) (A) (A) (A) (A)
                 (A) (A) (A) (A) (A) (A) (A) (A) (A) (A) (A) (A)
                 (A) (A) (A) (A) (A) (A) (A) (A) (A) (A) (A) (A)
                 (A) (A) (A) (A) (A) (A) (A) (A) (A) (A) (A) (A)
                 (A) (A) (A) (A) (A) (A) (A) (A) (A) (A) (A) (A)
                 (A) (A) (A) (A) (A) (A) (A) (A) (A) (A) (A) (A)
                 (A) (A) (A) (A) (A) (A) (A) (A) (A) (A) (A) (A)
                 (A) (A) (A) (A) (A) (A) (A) (A) (A) (A) (A) (A)
                 (A) (A) (A) (A) (A) (A) (A) (A) (A) (A) (A) (A)
                 (A) (A) (A) (A) (A) (A) (A) (A) (A) (A) (A) (A)
                 (A) (A) (A) (A) (A) (A) (A) (A) (A) (A) (A) (A)
                 (A) (A) (A) (A) (A) (A) (A) (A) (A) (A) (A) (A)
                 (A) (A) (A) (A) (A) (A) (A) (A) (A) (A) (A) (A)
                 (A) (A) (A) (A) (A) (A) (A) (A) (A) (A) (A) (A)
                 (A) (A) (A) (A) (A) (A) (A) (A) (A) (A) (A) (A)
                 (A) (A) (A) (A) (A) (A) (A) (A) (A) (A) (A) (A)
                 (A) (A) (A) (A) (A) (A) (A) (A) (A) (A) (A) (A)
                 (A) (A) (A) (A) (A) (A) (A) (A) (A) (A) (A) (A)
                 (A) (A) (A) (A) (A) (A) (A) (A) (A) (A) (A) (A)
                 (A) (A) (A) (A) (A) (A) (A) (A) (A) (A) (A) (A)
                 (A) (A) (A) (A) (A) (A) (A) (A) (A) (A) (A) (A)
                 (A) (A) (A) (A) (A) (A) (A) (A) (A) (A) (A) (A)
                 (A) (A) (A) (A) (A) (A) (A) (A) (A) (A) (A) (A)
                 (A) (A) (A) (A) (A) (A) (A) (A) (A) (A) (A) (A)
                 (A) (A) (A) (A) (A) (A) (A) (A) (A) (A) (A) (A)
                 (A) (A) (A) (A) (A) (A) (A) (A) (A) (A) (A) (A)
                 (A) (A) (A) (A) (A) (A) (A) (A) (A) (A) (A) (A)
                 (A) (A) (A) (A) (A) (A) (A) (A) (A) (A) (A) (A)
                 (A) (A) (A) (A) (A) (A) (A) (A) (A) (A) (A) (A)
                 (A) (A) (A) (A) (A) (A) (A) (A) (A) (A) (A) (A)
                 (A) (A) (A) (A) (A) (A) (A) (A) (A) (A) (A) (A)
                 (A) (A) (A) (A) (A) (A) (A) (A) (A) (A) (A) (A)
                 (A) (A) (A) (A) (A) (A) (A) (A) (A) (A) (A) (A)
                 (A) (A) (A) (A) (A) (A) (A) (A) (A) (A) (A) (A)
                 (A) (A) (A) (A) (A) (A) (A) (A) (A) (A) (A) (A)
                 (A) (A) (A) (A) (A) (A) (A) (A) (A) (A) (A) (A)
                 (A) (A) (A) (A) (A) (A) (A) (A) (A) (A) (A) (A)
                 (A) (A) (A) (A) (A) (A) (A) (A) (A) (A) (A) (A)
                 (A) (A) (A) (A) (A) (A) (A) (A) (A) (A) (A) (A)
                 (A) (A) (A) (A) (A) (A) (A) (A) (A) (A) (A) (A)
                 (A) (A) (A) (A) (A) (A) (A) (A) (A) (A) (A) (A)
                 (A) (A) (A) (A) (A) (A) (A) (A) (A) (A) (A) (A)
                 (A) (A) (A) (A) (A) (A) (A) (A) (A) (A) (A) (A)
                 (A) (A) (A) (A) (A) (A) (A) (A) (A) (A) (A) (A)
                 (A) (A) (A) (A) (A) (A) (A) (A) (A) (A) (A) (A)
                 (A) (A) (A) (A) (A) (A) (A) (A) (A) (A) (A) (A)
                 (A) (A) (A) (A) (A) (A) (A) (A) (A) (A) (A) (A)
                 (A) (A) (A) (A) (A) (A) (A) (A) (A) (A) (A) (A)
                 (A) (A) (A) (A) (A) (A) (A) (A) (A) (A) (A) (A)
                 (A) (A) (A) (A) (A) (A) (A) (A) (A) (A) (A) (A)
                 (A) (A) (A) (A) (A) (A) (A) (A) (A) (A) (A) (A)
                 (A) (A) (A) (A) (A) (A) (A) (A) (A) (A) (A) (A)
                 (A) (A) (A) (A) (A) (A) (A) (A) (A) (A) (A) (A)
                 (A) (A) (A) (A) (A) (A) (A) (A) (A) (A) (A) (A)
                 (A) (A) (A) (A) (A) (A) (A) (A) (A) (A) (A) (A)
                 (A) (A) (A) (A) (A) (A) (A) (A) (A) (A) (A) (A)
                 (A) (A) (A) (A) (A) (A) (A) (A) (A) (A) (A) (A)
                 (A) (A) (A) (A) (A) (A) (A) (A) (A) (A) (A) (A)
                 (A) (A) (A) (A) (A) (A) (A) (A) (A) (A) (A) (A)
                 (A) (A) (A) (A) (A) (A) (A) (A) (A) (A) (A) (A)
                 (A) (A) (A) (A) (A) (A) (A) (A) (A) (A) (A) (A)
                 (A) (A) (A) (A) (A) (A) (A) (A) (A) (A) (A) (A)
                 (A) (A) (A) (A) (A) (A) (A) (A) (A) (A) (A) (A)
                 (A) (A) (A) (A) (A) (A) (A) (A) (A) (A) (A) (A)
                 (A) (A) (A) (A) (A) (A) (A) (A) (A) (A) (A) (A)
                 (A) (A) (A) (A) (A) (A) (A) (A) (A) (A) (A) (A)
                 (A) (A) (A) (A) (A) (A) (A) (A) (A) (A) (A) (A)
                 (A) (A) (A) (A) (A) (A) (A) (A) (A) (A) (A) (A)
                 (A) (A) (A) (A) (A) (A) (A) (A) (A) (A) (A) (A)
                 (A) (A) (A) (A) (A) (A) (A) (A) (A) (A) (A) (A)
                 (A) (A) (A) (A) (A) (A) (A) (A) (A) (A) (A) (A)
                 (A) (A) (A) (A) (A) (A) (A) (A) (A) (A) (A) (A)
                 (A) (A) (A) (A) (A) (A) (A) (A) (A) (A) (A) (A)
                 (A) (A) (A) (A) (A) (A) (A) (A) (A) (A) (A) (A)
                 (A) (A) (A) (A) (A) (A) (A) (A) (A) (A) (A) (A)
                 (A) (A) (A) (A) (A) (A) (A) (A) (A) (A) (A) (A)
                 (A) (A) (A) (A) (A) (A) (A) (A) (A) (A) (A) (A)
                 (A) (A) (A) (A) (A) (A) (A) (A) (A) (A) (A) (A)
                 (A) (A) (A) (A) (A) (A) (A) (A) (A) (A) (A) (A)
                 (A) (A) (A) (A) (A) (A) (A) (A) (A) (A) (A) (A)
                 (A) (A) (A) (A) (A) (A) (A) (A) (A) (A) (A) (A)
                 (A) (A) (A) (A) (A) (A) (A) (A) (A) (A) (A) (A)
                 (A) (A) (A) (A) (A) (A) (A) (A) (A) (A) (A) (A)
                 (A) (A) (A) (A) (A) (A) (A) (A) (A) (A) (A) (A)
                 (A) (A) (A) (A) (A) (A) (A) (A) (A) (A) (A) (A)
                 (A) (A) (A) (A) (A) (A) (A) (A) (A) (A) (A) (A)
                 (A) (A) (A) (A) (A) (A) (A) (A) (A) (A) (A) (A)
                 (A) (A) (A) (A) (A) (A) (A) (A) (A) (A) (A) (A)
                 (A) (A) (A) (A) (A) (A) (A) (A) (A) (A) (A) (A)
                 (A) (A) (A) (A) (A) (A) (A) (A) (A) (A) (A) (A)
                 (A) (A) (A) (A) (A) (A) (A) (A) (A) (A) (A) (A)
                 (A) (A) (A) (A) (A) (A) (A) (A) (A) (A) (A) (A)
                 (A) (A) (A) (A) (A) (A) (A) (A) (A) (A) (A) (A)
                 (A) (A) (A) (A) (A) (A) (A) (A) (A) (A) (A) (A)
                 (A) (A) (A) (A) (A) (A) (A) (A) (A) (A) (A) (A)
                 (A) (A) (A) (A) (A) (A) (A) (A) (A) (A) (A) (A)
                 (A) (A) (A) (A) (A) (A) (A) (A) (A) (A) (A) (A)
                 (A) (A) (A) (A) (A) (A) (A) (A) (A) (A) (A) (A)
                 (A) (A) (A) (A) (A) (A) (A) (A) (A) (A) (A) (A)
                 (A) (A) (A) (A) (A) (A) (A) (A) (A) (A) (A) (A)
                 (A) (A) (A) (A) (A) (A) (A) (A) (A) (A) (A)
 Beta  Orbitals:
       Occupied  (A) (A) (A) (A) (A) (A) (A) (A) (A) (A) (A) (A)
                 (A) (A) (A) (A) (A) (A) (A) (A) (A) (A) (A) (A)
                 (A) (A) (A) (A) (A) (A) (A) (A) (A) (A) (A) (A)
                 (A) (A) (A) (A) (A) (A) (A) (A) (A) (A) (A) (A)
                 (A) (A) (A) (A) (A) (A) (A) (A) (A) (A) (A) (A)
                 (A) (A) (A) (A) (A) (A) (A) (A) (A) (A) (A) (A)
                 (A) (A) (A) (A) (A) (A) (A) (A) (A) (A) (A) (A)
                 (A) (A) (A) (A) (A) (A) (A) (A) (A) (A) (A) (A)
                 (A) (A) (A) (A) (A) (A) (A) (A) (A) (A) (A) (A)
                 (A) (A) (A) (A) (A) (A) (A) (A) (A) (A) (A) (A)
                 (A) (A) (A) (A) (A) (A) (A) (A) (A) (A) (A) (A)
                 (A) (A) (A) (A) (A) (A) (A) (A) (A) (A) (A) (A)
                 (A) (A) (A) (A) (A) (A) (A) (A) (A) (A) (A) (A)
                 (A) (A) (A) (A) (A) (A) (A) (A) (A) (A) (A) (A)
                 (A) (A) (A) (A) (A) (A) (A) (A) (A) (A) (A) (A)
                 (A) (A) (A) (A) (A) (A) (A) (A) (A) (A) (A) (A)
                 (A) (A) (A) (A) (A) (A) (A) (A) (A) (A) (A) (A)
                 (A) (A) (A) (A) (A) (A) (A) (A) (A) (A) (A) (A)
                 (A) (A) (A) (A) (A) (A) (A) (A) (A) (A) (A) (A)
                 (A) (A) (A) (A) (A) (A) (A) (A) (A) (A) (A) (A)
                 (A) (A) (A) (A) (A) (A) (A) (A) (A) (A) (A) (A)
                 (A) (A) (A) (A) (A) (A) (A) (A) (A) (A) (A) (A)
                 (A) (A) (A) (A) (A) (A) (A) (A) (A) (A) (A) (A)
                 (A) (A) (A) (A) (A) (A) (A) (A) (A) (A) (A) (A)
                 (A) (A) (A) (A) (A) (A) (A) (A) (A) (A) (A) (A)
                 (A) (A) (A) (A) (A) (A) (A) (A) (A) (A) (A) (A)
                 (A) (A) (A) (A) (A) (A) (A) (A) (A) (A)
       Virtual   (A) (A) (A) (A) (A) (A) (A) (A) (A) (A) (A) (A)
                 (A) (A) (A) (A) (A) (A) (A) (A) (A) (A) (A) (A)
                 (A) (A) (A) (A) (A) (A) (A) (A) (A) (A) (A) (A)
                 (A) (A) (A) (A) (A) (A) (A) (A) (A) (A) (A) (A)
                 (A) (A) (A) (A) (A) (A) (A) (A) (A) (A) (A) (A)
                 (A) (A) (A) (A) (A) (A) (A) (A) (A) (A) (A) (A)
                 (A) (A) (A) (A) (A) (A) (A) (A) (A) (A) (A) (A)
                 (A) (A) (A) (A) (A) (A) (A) (A) (A) (A) (A) (A)
                 (A) (A) (A) (A) (A) (A) (A) (A) (A) (A) (A) (A)
                 (A) (A) (A) (A) (A) (A) (A) (A) (A) (A) (A) (A)
                 (A) (A) (A) (A) (A) (A) (A) (A) (A) (A) (A) (A)
                 (A) (A) (A) (A) (A) (A) (A) (A) (A) (A) (A) (A)
                 (A) (A) (A) (A) (A) (A) (A) (A) (A) (A) (A) (A)
                 (A) (A) (A) (A) (A) (A) (A) (A) (A) (A) (A) (A)
                 (A) (A) (A) (A) (A) (A) (A) (A) (A) (A) (A) (A)
                 (A) (A) (A) (A) (A) (A) (A) (A) (A) (A) (A) (A)
                 (A) (A) (A) (A) (A) (A) (A) (A) (A) (A) (A) (A)
                 (A) (A) (A) (A) (A) (A) (A) (A) (A) (A) (A) (A)
                 (A) (A) (A) (A) (A) (A) (A) (A) (A) (A) (A) (A)
                 (A) (A) (A) (A) (A) (A) (A) (A) (A) (A) (A) (A)
                 (A) (A) (A) (A) (A) (A) (A) (A) (A) (A) (A) (A)
                 (A) (A) (A) (A) (A) (A) (A) (A) (A) (A) (A) (A)
                 (A) (A) (A) (A) (A) (A) (A) (A) (A) (A) (A) (A)
                 (A) (A) (A) (A) (A) (A) (A) (A) (A) (A) (A) (A)
                 (A) (A) (A) (A) (A) (A) (A) (A) (A) (A) (A) (A)
                 (A) (A) (A) (A) (A) (A) (A) (A) (A) (A) (A) (A)
                 (A) (A) (A) (A) (A) (A) (A) (A) (A) (A) (A) (A)
                 (A) (A) (A) (A) (A) (A) (A) (A) (A) (A) (A) (A)
                 (A) (A) (A) (A) (A) (A) (A) (A) (A) (A) (A) (A)
                 (A) (A) (A) (A) (A) (A) (A) (A) (A) (A) (A) (A)
                 (A) (A) (A) (A) (A) (A) (A) (A) (A) (A) (A) (A)
                 (A) (A) (A) (A) (A) (A) (A) (A) (A) (A) (A) (A)
                 (A) (A) (A) (A) (A) (A) (A) (A) (A) (A) (A) (A)
                 (A) (A) (A) (A) (A) (A) (A) (A) (A) (A) (A) (A)
                 (A) (A) (A) (A) (A) (A) (A) (A) (A) (A) (A) (A)
                 (A) (A) (A) (A) (A) (A) (A) (A) (A) (A) (A) (A)
                 (A) (A) (A) (A) (A) (A) (A) (A) (A) (A) (A) (A)
                 (A) (A) (A) (A) (A) (A) (A) (A) (A) (A) (A) (A)
                 (A) (A) (A) (A) (A) (A) (A) (A) (A) (A) (A) (A)
                 (A) (A) (A) (A) (A) (A) (A) (A) (A) (A) (A) (A)
                 (A) (A) (A) (A) (A) (A) (A) (A) (A) (A) (A) (A)
                 (A) (A) (A) (A) (A) (A) (A) (A) (A) (A) (A) (A)
                 (A) (A) (A) (A) (A) (A) (A) (A) (A) (A) (A) (A)
                 (A) (A) (A) (A) (A) (A) (A) (A) (A) (A) (A) (A)
                 (A) (A) (A) (A) (A) (A) (A) (A) (A) (A) (A) (A)
                 (A) (A) (A) (A) (A) (A) (A) (A) (A) (A) (A) (A)
                 (A) (A) (A) (A) (A) (A) (A) (A) (A) (A) (A) (A)
                 (A) (A) (A) (A) (A) (A) (A) (A) (A) (A) (A) (A)
                 (A) (A) (A) (A) (A) (A) (A) (A) (A) (A) (A) (A)
                 (A) (A) (A) (A) (A) (A) (A) (A) (A) (A) (A) (A)
                 (A) (A) (A) (A) (A) (A) (A) (A) (A) (A) (A) (A)
                 (A) (A) (A) (A) (A) (A) (A) (A) (A) (A) (A) (A)
                 (A) (A) (A) (A) (A) (A) (A) (A) (A) (A) (A) (A)
                 (A) (A) (A) (A) (A) (A) (A) (A) (A) (A) (A) (A)
                 (A) (A) (A) (A) (A) (A) (A) (A) (A) (A) (A) (A)
                 (A) (A) (A) (A) (A) (A) (A) (A) (A) (A) (A) (A)
                 (A) (A) (A) (A) (A) (A) (A) (A) (A) (A) (A) (A)
                 (A) (A) (A) (A) (A) (A) (A) (A) (A) (A) (A) (A)
                 (A) (A) (A) (A) (A) (A) (A) (A) (A) (A) (A) (A)
                 (A) (A) (A) (A) (A) (A) (A) (A) (A) (A) (A) (A)
                 (A) (A) (A) (A) (A) (A) (A) (A) (A) (A) (A) (A)
                 (A) (A) (A) (A) (A) (A) (A) (A) (A) (A) (A) (A)
                 (A) (A) (A) (A) (A) (A) (A) (A) (A) (A) (A) (A)
                 (A) (A) (A) (A) (A) (A) (A) (A) (A) (A) (A) (A)
                 (A) (A) (A) (A) (A) (A) (A) (A) (A) (A) (A) (A)
                 (A) (A) (A) (A) (A) (A) (A) (A) (A) (A) (A) (A)
                 (A) (A) (A) (A) (A) (A) (A) (A) (A) (A) (A) (A)
                 (A) (A) (A) (A) (A) (A) (A) (A) (A) (A) (A) (A)
                 (A) (A) (A) (A) (A) (A) (A) (A) (A) (A) (A) (A)
                 (A) (A) (A) (A) (A) (A) (A) (A) (A) (A) (A) (A)
                 (A) (A) (A) (A) (A) (A) (A) (A) (A) (A) (A) (A)
                 (A) (A) (A) (A) (A) (A) (A) (A) (A) (A) (A) (A)
                 (A) (A) (A) (A) (A) (A) (A) (A) (A) (A) (A) (A)
                 (A) (A) (A) (A) (A) (A) (A) (A) (A) (A) (A) (A)
                 (A) (A) (A) (A) (A) (A) (A) (A) (A) (A) (A) (A)
                 (A) (A) (A) (A) (A) (A) (A) (A) (A) (A) (A) (A)
                 (A) (A) (A) (A) (A) (A) (A) (A) (A) (A) (A) (A)
                 (A) (A) (A) (A) (A) (A) (A) (A) (A) (A) (A) (A)
                 (A) (A) (A) (A) (A) (A) (A) (A) (A) (A) (A) (A)
                 (A) (A) (A) (A) (A) (A) (A) (A) (A) (A) (A) (A)
                 (A) (A) (A) (A) (A) (A) (A) (A) (A) (A) (A) (A)
                 (A) (A) (A) (A) (A) (A) (A) (A) (A) (A) (A) (A)
                 (A) (A) (A) (A) (A) (A) (A) (A) (A) (A) (A) (A)
                 (A) (A) (A) (A) (A) (A) (A) (A) (A) (A) (A) (A)
                 (A) (A) (A) (A) (A) (A) (A) (A) (A) (A) (A) (A)
                 (A) (A) (A) (A) (A) (A) (A) (A) (A) (A) (A) (A)
                 (A) (A) (A) (A) (A) (A) (A) (A) (A) (A) (A) (A)
                 (A) (A) (A) (A) (A) (A) (A) (A) (A) (A) (A) (A)
                 (A) (A) (A) (A) (A) (A) (A) (A) (A) (A) (A) (A)
                 (A) (A) (A) (A) (A) (A) (A) (A) (A) (A) (A) (A)
                 (A) (A) (A) (A) (A) (A) (A) (A) (A) (A) (A) (A)
                 (A) (A) (A) (A) (A) (A) (A) (A) (A) (A) (A) (A)
                 (A) (A) (A) (A) (A) (A) (A) (A) (A) (A) (A) (A)
                 (A) (A) (A) (A) (A) (A) (A) (A) (A) (A) (A) (A)
                 (A) (A) (A) (A) (A) (A) (A) (A) (A) (A) (A) (A)
                 (A) (A) (A) (A) (A) (A) (A) (A) (A) (A) (A) (A)
                 (A) (A) (A) (A) (A) (A) (A) (A) (A) (A) (A) (A)
                 (A) (A) (A) (A) (A) (A) (A) (A) (A) (A) (A) (A)
                 (A) (A) (A) (A) (A) (A) (A) (A) (A) (A) (A) (A)
                 (A) (A) (A) (A) (A) (A) (A) (A) (A) (A) (A) (A)
                 (A) (A) (A) (A) (A) (A) (A) (A) (A) (A) (A) (A)
                 (A) (A) (A) (A) (A) (A) (A) (A) (A) (A) (A) (A)
                 (A) (A) (A) (A) (A) (A) (A) (A) (A) (A) (A) (A)
                 (A) (A) (A) (A) (A) (A) (A) (A) (A) (A) (A) (A)
                 (A) (A) (A) (A) (A) (A) (A) (A) (A) (A) (A) (A)
                 (A) (A) (A) (A) (A) (A) (A) (A) (A) (A) (A) (A)
                 (A) (A) (A) (A) (A) (A) (A) (A) (A) (A) (A) (A)
                 (A) (A) (A) (A) (A) (A) (A) (A) (A) (A) (A) (A)
                 (A) (A) (A) (A) (A) (A) (A) (A) (A) (A) (A) (A)
                 (A) (A) (A) (A) (A) (A) (A) (A) (A) (A) (A) (A)
 The electronic state of the initial guess is 2-A.
 Initial guess <Sx>= 0.0000 <Sy>= 0.0000 <Sz>= 0.5000 <S**2>= 0.7500 S= 0.5000
 Leave Link  401 at Tue Jan 27 18:33:52 2015, MaxMem= 2147483648 cpu:     568.8
 (Enter /opt/g09/l502.exe)
 UHF open shell SCF:
 Requested convergence on RMS density matrix=1.00D-08 within 128 cycles.
 Requested convergence on MAX density matrix=1.00D-06.
 Requested convergence on             energy=1.00D-06.
 No special actions if energy rises.
 Using DIIS extrapolation, IDIIS=  1040.
 Integral symmetry usage will be decided dynamically.
      1426202 words used for storage of precomputed grid.
 IEnd=    10529799 IEndB=    10529799 NGot=  2147483648 MDV=  2139982450
 LenX=  2139982450 LenY=  2136970490
 Fock matrices will be formed incrementally for  20 cycles.
 Integral accuracy reduced to 1.0D-05 until final iterations.

 Cycle   1  Pass 0  IDiag  1:
 FoFCou: FMM=T IPFlag=           0 FMFlag=      100000 FMFlg1=        2001
         NFxFlg=           0 DoJE=F BraDBF=F KetDBF=F FulRan=T
         Omega=  0.000000  0.000000  1.000000  0.000000  0.000000 ICntrl=       0 IOpCl=  1
         NMat0=    1 NMatS0=    1 NMatT0=    0 NMatD0=    1 NMtDS0=    0 NMtDT0=    0
         I1Cent=           0 NGrid=           0.
 Symmetry not used in FoFCou.
 FMM levels:  10  Number of levels for PrismC:   9
 E= -3946.59047278145    
 DIIS: error= 2.33D-02 at cycle   1 NSaved=   1.
 NSaved= 1 IEnMin= 1 EnMin= -3946.59047278145     IErMin= 1 ErrMin= 2.33D-02
 ErrMax= 2.33D-02 EMaxC= 1.00D-01 BMatC= 6.12D+00 BMatP= 6.12D+00
 IDIUse=3 WtCom= 7.67D-01 WtEn= 2.33D-01
 Coeff-Com:  0.100D+01
 Coeff-En:   0.100D+01
 Coeff:      0.100D+01
 Gap=     0.145 Goal=   None    Shift=    0.000
 Gap=     0.007 Goal=   None    Shift=    0.000
 GapD=    0.007 DampG=0.250 DampE=0.500 DampFc=0.2500 IDamp=-1.
 Damping current iteration by 2.50D-01
 RMSDP=2.20D-03 MaxDP=2.00D-01              OVMax= 5.62D-01

 Cycle   2  Pass 0  IDiag  1:
 RMSU=  3.65D-04    CP:  9.79D-01
 E= -3947.20591074580     Delta-E=       -0.615437964352 Rises=F Damp=T
 DIIS: error= 1.29D-02 at cycle   2 NSaved=   2.
 NSaved= 2 IEnMin= 2 EnMin= -3947.20591074580     IErMin= 2 ErrMin= 1.29D-02
 ErrMax= 1.29D-02 EMaxC= 1.00D-01 BMatC= 1.70D+00 BMatP= 6.12D+00
 IDIUse=3 WtCom= 8.71D-01 WtEn= 1.29D-01
 Coeff-Com: -0.900D+00 0.190D+01
 Coeff-En:   0.000D+00 0.100D+01
 Coeff:     -0.784D+00 0.178D+01
 Gap=     0.146 Goal=   None    Shift=    0.000
 Gap=     0.002 Goal=   None    Shift=    0.000
 RMSDP=1.14D-03 MaxDP=1.40D-01 DE=-6.15D-01 OVMax= 7.83D-01

 Cycle   3  Pass 0  IDiag  1:
 RMSU=  4.68D-04    CP:  9.30D-01  2.49D+00
 E= -3948.15490051373     Delta-E=       -0.948989767930 Rises=F Damp=F
 DIIS: error= 7.26D-03 at cycle   3 NSaved=   3.
 NSaved= 3 IEnMin= 3 EnMin= -3948.15490051373     IErMin= 3 ErrMin= 7.26D-03
 ErrMax= 7.26D-03 EMaxC= 1.00D-01 BMatC= 6.17D-01 BMatP= 1.70D+00
 IDIUse=3 WtCom= 9.27D-01 WtEn= 7.26D-02
 Coeff-Com: -0.540D+00 0.109D+01 0.446D+00
 Coeff-En:   0.000D+00 0.000D+00 0.100D+01
 Coeff:     -0.501D+00 0.101D+01 0.487D+00
 Gap=     0.173 Goal=   None    Shift=    0.000
 Gap=    -0.014 Goal=   None    Shift=    0.000
 RMSDP=6.11D-04 MaxDP=8.16D-02 DE=-9.49D-01 OVMax= 6.47D-01

 Cycle   4  Pass 0  IDiag  1:
 RMSU=  2.40D-04    CP:  9.34D-01  2.56D+00  3.91D-01
 E= -3948.23313506839     Delta-E=       -0.078234554654 Rises=F Damp=F
 DIIS: error= 6.11D-03 at cycle   4 NSaved=   4.
 NSaved= 4 IEnMin= 4 EnMin= -3948.23313506839     IErMin= 4 ErrMin= 6.11D-03
 ErrMax= 6.11D-03 EMaxC= 1.00D-01 BMatC= 3.15D-01 BMatP= 6.17D-01
 IDIUse=3 WtCom= 9.39D-01 WtEn= 6.11D-02
 Coeff-Com: -0.226D+00 0.458D+00 0.384D+00 0.384D+00
 Coeff-En:   0.000D+00 0.000D+00 0.390D+00 0.610D+00
 Coeff:     -0.212D+00 0.430D+00 0.384D+00 0.398D+00
 Gap=     0.144 Goal=   None    Shift=    0.000
 Gap=     0.014 Goal=   None    Shift=    0.000
 RMSDP=4.58D-04 MaxDP=4.75D-02 DE=-7.82D-02 OVMax= 8.29D-01

 Cycle   5  Pass 0  IDiag  1:
 RMSU=  1.20D-04    CP:  9.34D-01  2.43D+00  7.12D-01  2.13D-01
 E= -3948.30350404051     Delta-E=       -0.070368972127 Rises=F Damp=F
 DIIS: error= 2.86D-03 at cycle   5 NSaved=   5.
 NSaved= 5 IEnMin= 5 EnMin= -3948.30350404051     IErMin= 5 ErrMin= 2.86D-03
 ErrMax= 2.86D-03 EMaxC= 1.00D-01 BMatC= 7.25D-02 BMatP= 3.15D-01
 IDIUse=3 WtCom= 9.71D-01 WtEn= 2.86D-02
 Coeff-Com: -0.721D-01 0.149D+00 0.232D+00 0.333D+00 0.359D+00
 Coeff-En:   0.000D+00 0.000D+00 0.000D+00 0.248D+00 0.752D+00
 Coeff:     -0.701D-01 0.144D+00 0.226D+00 0.330D+00 0.370D+00
 Gap=     0.142 Goal=   None    Shift=    0.000
 Gap=     0.002 Goal=   None    Shift=    0.000
 RMSDP=3.34D-04 MaxDP=2.67D-02 DE=-7.04D-02 OVMax= 6.44D-01

 Cycle   6  Pass 0  IDiag  1:
 RMSU=  5.53D-05    CP:  9.34D-01  2.49D+00  5.46D-01  6.63D-01 -9.45D-04
 E= -3948.31879971499     Delta-E=       -0.015295674479 Rises=F Damp=F
 DIIS: error= 1.44D-03 at cycle   6 NSaved=   6.
 NSaved= 6 IEnMin= 6 EnMin= -3948.31879971499     IErMin= 6 ErrMin= 1.44D-03
 ErrMax= 1.44D-03 EMaxC= 1.00D-01 BMatC= 2.49D-02 BMatP= 7.25D-02
 IDIUse=3 WtCom= 9.86D-01 WtEn= 1.44D-02
 Coeff-Com: -0.123D-01 0.272D-01 0.104D+00 0.157D+00 0.344D+00 0.380D+00
 Coeff-En:   0.000D+00 0.000D+00 0.000D+00 0.000D+00 0.335D+00 0.665D+00
 Coeff:     -0.121D-01 0.268D-01 0.102D+00 0.155D+00 0.344D+00 0.384D+00
 Gap=     0.133 Goal=   None    Shift=    0.000
 Gap=     0.009 Goal=   None    Shift=    0.000
 RMSDP=1.59D-04 MaxDP=1.06D-02 DE=-1.53D-02 OVMax= 3.05D-01

 Cycle   7  Pass 0  IDiag  1:
 RMSU=  3.38D-05    CP:  9.34D-01  2.47D+00  6.24D-01  4.48D-01  4.49D-01
                    CP:  7.40D-01
 E= -3948.32703466901     Delta-E=       -0.008234954013 Rises=F Damp=F
 DIIS: error= 3.90D-04 at cycle   7 NSaved=   7.
 NSaved= 7 IEnMin= 7 EnMin= -3948.32703466901     IErMin= 7 ErrMin= 3.90D-04
 ErrMax= 3.90D-04 EMaxC= 1.00D-01 BMatC= 2.32D-03 BMatP= 2.49D-02
 IDIUse=3 WtCom= 9.96D-01 WtEn= 3.90D-03
 Coeff-Com:  0.598D-02-0.109D-01 0.172D-01 0.208D-01 0.159D+00 0.291D+00
 Coeff-Com:  0.517D+00
 Coeff-En:   0.000D+00 0.000D+00 0.000D+00 0.000D+00 0.000D+00 0.752D-01
 Coeff-En:   0.925D+00
 Coeff:      0.596D-02-0.109D-01 0.171D-01 0.207D-01 0.159D+00 0.290D+00
 Coeff:      0.518D+00
 Gap=     0.132 Goal=   None    Shift=    0.000
 Gap=     0.013 Goal=   None    Shift=    0.000
 RMSDP=3.55D-05 MaxDP=3.20D-03 DE=-8.23D-03 OVMax= 5.36D-02

 Cycle   8  Pass 0  IDiag  1:
 RMSU=  9.69D-06    CP:  9.34D-01  2.47D+00  6.15D-01  4.81D-01  3.93D-01
                    CP:  8.55D-01  7.24D-01
 E= -3948.32762913597     Delta-E=       -0.000594466965 Rises=F Damp=F
 DIIS: error= 1.64D-04 at cycle   8 NSaved=   8.
 NSaved= 8 IEnMin= 8 EnMin= -3948.32762913597     IErMin= 8 ErrMin= 1.64D-04
 ErrMax= 1.64D-04 EMaxC= 1.00D-01 BMatC= 4.77D-04 BMatP= 2.32D-03
 IDIUse=3 WtCom= 9.98D-01 WtEn= 1.64D-03
 Coeff-Com:  0.464D-02-0.868D-02 0.329D-02-0.207D-02 0.796D-01 0.166D+00
 Coeff-Com:  0.376D+00 0.381D+00
 Coeff-En:   0.000D+00 0.000D+00 0.000D+00 0.000D+00 0.000D+00 0.000D+00
 Coeff-En:   0.146D+00 0.854D+00
 Coeff:      0.463D-02-0.866D-02 0.328D-02-0.206D-02 0.794D-01 0.166D+00
 Coeff:      0.376D+00 0.382D+00
 Gap=     0.132 Goal=   None    Shift=    0.000
 Gap=     0.014 Goal=   None    Shift=    0.000
 RMSDP=1.20D-05 MaxDP=1.30D-03 DE=-5.94D-04 OVMax= 1.32D-02

 Cycle   9  Pass 0  IDiag  1:
 RMSU=  4.14D-06    CP:  9.34D-01  2.47D+00  6.15D-01  4.79D-01  3.92D-01
                    CP:  8.50D-01  7.71D-01  4.59D-01
 E= -3948.32773579104     Delta-E=       -0.000106655069 Rises=F Damp=F
 DIIS: error= 8.65D-05 at cycle   9 NSaved=   9.
 NSaved= 9 IEnMin= 9 EnMin= -3948.32773579104     IErMin= 9 ErrMin= 8.65D-05
 ErrMax= 8.65D-05 EMaxC= 1.00D-01 BMatC= 7.29D-05 BMatP= 4.77D-04
 IDIUse=1 WtCom= 1.00D+00 WtEn= 0.00D+00
 Coeff-Com:  0.186D-02-0.340D-02 0.172D-03-0.593D-02 0.283D-01 0.590D-01
 Coeff-Com:  0.177D+00 0.273D+00 0.470D+00
 Coeff:      0.186D-02-0.340D-02 0.172D-03-0.593D-02 0.283D-01 0.590D-01
 Coeff:      0.177D+00 0.273D+00 0.470D+00
 Gap=     0.131 Goal=   None    Shift=    0.000
 Gap=     0.015 Goal=   None    Shift=    0.000
 RMSDP=6.31D-06 MaxDP=7.19D-04 DE=-1.07D-04 OVMax= 8.53D-03

 Initial convergence to 1.0D-05 achieved.  Increase integral accuracy.
 Cycle  10  Pass 1  IDiag  1:
 E= -3948.32688652116     Delta-E=        0.000849269883 Rises=F Damp=F
 DIIS: error= 3.48D-04 at cycle   1 NSaved=   1.
 NSaved= 1 IEnMin= 1 EnMin= -3948.32688652116     IErMin= 1 ErrMin= 3.48D-04
 ErrMax= 3.48D-04 EMaxC= 1.00D-01 BMatC= 4.97D-04 BMatP= 4.97D-04
 IDIUse=3 WtCom= 9.97D-01 WtEn= 3.48D-03
 Coeff-Com:  0.100D+01
 Coeff-En:   0.100D+01
 Coeff:      0.100D+01
 Gap=     0.132 Goal=   None    Shift=    0.000
 Gap=     0.015 Goal=   None    Shift=    0.000
 RMSDP=6.31D-06 MaxDP=7.19D-04 DE= 8.49D-04 OVMax= 2.01D-02

 Cycle  11  Pass 1  IDiag  1:
 RMSU=  1.18D-04    CP:  9.99D-01
 E= -3948.32689227412     Delta-E=       -0.000005752965 Rises=F Damp=F
 DIIS: error= 1.42D-04 at cycle   2 NSaved=   2.
 NSaved= 2 IEnMin= 2 EnMin= -3948.32689227412     IErMin= 2 ErrMin= 1.42D-04
 ErrMax= 1.42D-04 EMaxC= 1.00D-01 BMatC= 3.31D-04 BMatP= 4.97D-04
 IDIUse=3 WtCom= 9.99D-01 WtEn= 1.42D-03
 Coeff-Com:  0.418D+00 0.582D+00
 Coeff-En:   0.479D+00 0.521D+00
 Coeff:      0.418D+00 0.582D+00
 Gap=     0.133 Goal=   None    Shift=    0.000
 Gap=     0.015 Goal=   None    Shift=    0.000
 RMSDP=3.46D-05 MaxDP=3.82D-03 DE=-5.75D-06 OVMax= 5.99D-02

 Cycle  12  Pass 1  IDiag  1:
 RMSU=  1.03D-05    CP:  9.99D-01  9.88D-01
 E= -3948.32661942946     Delta-E=        0.000272844660 Rises=F Damp=F
 DIIS: error= 2.54D-04 at cycle   3 NSaved=   3.
 NSaved= 3 IEnMin= 2 EnMin= -3948.32689227412     IErMin= 2 ErrMin= 1.42D-04
 ErrMax= 2.54D-04 EMaxC= 1.00D-01 BMatC= 1.16D-03 BMatP= 3.31D-04
 IDIUse=3 WtCom= 3.85D-01 WtEn= 6.15D-01
 Coeff-Com:  0.156D-01 0.645D+00 0.339D+00
 Coeff-En:   0.000D+00 0.692D+00 0.308D+00
 Coeff:      0.602D-02 0.674D+00 0.320D+00
 Gap=     0.132 Goal=   None    Shift=    0.000
 Gap=     0.015 Goal=   None    Shift=    0.000
 RMSDP=2.22D-05 MaxDP=2.23D-03 DE= 2.73D-04 OVMax= 4.11D-02

 Cycle  13  Pass 1  IDiag  1:
 RMSU=  2.23D-06    CP:  9.99D-01  1.00D+00  3.74D-01
 E= -3948.32698378825     Delta-E=       -0.000364358788 Rises=F Damp=F
 DIIS: error= 8.65D-05 at cycle   4 NSaved=   4.
 NSaved= 4 IEnMin= 4 EnMin= -3948.32698378825     IErMin= 4 ErrMin= 8.65D-05
 ErrMax= 8.65D-05 EMaxC= 1.00D-01 BMatC= 6.11D-05 BMatP= 3.31D-04
 IDIUse=1 WtCom= 1.00D+00 WtEn= 0.00D+00
 Coeff-Com: -0.374D-02 0.498D+00 0.231D+00 0.275D+00
 Coeff:     -0.374D-02 0.498D+00 0.231D+00 0.275D+00
 Gap=     0.132 Goal=   None    Shift=    0.000
 Gap=     0.015 Goal=   None    Shift=    0.000
 RMSDP=4.43D-06 MaxDP=5.81D-04 DE=-3.64D-04 OVMax= 5.55D-03

 Cycle  14  Pass 1  IDiag  1:
 RMSU=  7.76D-07    CP:  9.99D-01  1.00D+00  3.70D-01  9.05D-02
 E= -3948.32700150741     Delta-E=       -0.000017719158 Rises=F Damp=F
 DIIS: error= 1.68D-05 at cycle   5 NSaved=   5.
 NSaved= 5 IEnMin= 5 EnMin= -3948.32700150741     IErMin= 5 ErrMin= 1.68D-05
 ErrMax= 1.68D-05 EMaxC= 1.00D-01 BMatC= 3.08D-06 BMatP= 6.11D-05
 IDIUse=1 WtCom= 1.00D+00 WtEn= 0.00D+00
 Coeff-Com: -0.368D-02 0.317D+00 0.136D+00 0.221D+00 0.329D+00
 Coeff:     -0.368D-02 0.317D+00 0.136D+00 0.221D+00 0.329D+00
 Gap=     0.132 Goal=   None    Shift=    0.000
 Gap=     0.015 Goal=   None    Shift=    0.000
 RMSDP=7.82D-07 MaxDP=7.28D-05 DE=-1.77D-05 OVMax= 8.90D-04

 Cycle  15  Pass 1  IDiag  1:
 RMSU=  3.20D-07    CP:  9.99D-01  1.00D+00  3.65D-01  2.10D-01  7.96D-01
 E= -3948.32700236444     Delta-E=       -0.000000857028 Rises=F Damp=F
 DIIS: error= 5.43D-06 at cycle   6 NSaved=   6.
 NSaved= 6 IEnMin= 6 EnMin= -3948.32700236444     IErMin= 6 ErrMin= 5.43D-06
 ErrMax= 5.43D-06 EMaxC= 1.00D-01 BMatC= 5.47D-07 BMatP= 3.08D-06
 IDIUse=1 WtCom= 1.00D+00 WtEn= 0.00D+00
 Coeff-Com: -0.122D-02 0.671D-01 0.119D-01 0.926D-01 0.144D+00 0.686D+00
 Coeff:     -0.122D-02 0.671D-01 0.119D-01 0.926D-01 0.144D+00 0.686D+00
 Gap=     0.132 Goal=   None    Shift=    0.000
 Gap=     0.015 Goal=   None    Shift=    0.000
 RMSDP=3.67D-07 MaxDP=3.28D-05 DE=-8.57D-07 OVMax= 1.90D-04

 Cycle  16  Pass 1  IDiag  1:
 RMSU=  1.94D-07    CP:  9.99D-01  1.00D+00  3.65D-01  2.11D-01  9.74D-01
                    CP:  9.76D-01
 E= -3948.32700251402     Delta-E=       -0.000000149586 Rises=F Damp=F
 DIIS: error= 4.23D-06 at cycle   7 NSaved=   7.
 NSaved= 7 IEnMin= 7 EnMin= -3948.32700251402     IErMin= 7 ErrMin= 4.23D-06
 ErrMax= 4.23D-06 EMaxC= 1.00D-01 BMatC= 3.45D-07 BMatP= 5.47D-07
 IDIUse=1 WtCom= 1.00D+00 WtEn= 0.00D+00
 Coeff-Com:  0.176D-02-0.186D+00-0.108D+00-0.611D-01-0.152D+00 0.723D+00
 Coeff-Com:  0.782D+00
 Coeff:      0.176D-02-0.186D+00-0.108D+00-0.611D-01-0.152D+00 0.723D+00
 Coeff:      0.782D+00
 Gap=     0.132 Goal=   None    Shift=    0.000
 Gap=     0.015 Goal=   None    Shift=    0.000
 RMSDP=4.67D-07 MaxDP=4.18D-05 DE=-1.50D-07 OVMax= 3.18D-04

 Cycle  17  Pass 1  IDiag  1:
 RMSU=  1.35D-07    CP:  9.99D-01  1.00D+00  3.68D-01  2.26D-01  1.19D+00
                    CP:  1.58D+00  1.18D+00
 E= -3948.32700267288     Delta-E=       -0.000000158860 Rises=F Damp=F
 DIIS: error= 2.87D-06 at cycle   8 NSaved=   8.
 NSaved= 8 IEnMin= 8 EnMin= -3948.32700267288     IErMin= 8 ErrMin= 2.87D-06
 ErrMax= 2.87D-06 EMaxC= 1.00D-01 BMatC= 6.93D-08 BMatP= 3.45D-07
 IDIUse=1 WtCom= 1.00D+00 WtEn= 0.00D+00
 Coeff-Com:  0.138D-02-0.134D+00-0.748D-01-0.556D-01-0.140D+00 0.289D+00
 Coeff-Com:  0.534D+00 0.580D+00
 Coeff:      0.138D-02-0.134D+00-0.748D-01-0.556D-01-0.140D+00 0.289D+00
 Coeff:      0.534D+00 0.580D+00
 Gap=     0.132 Goal=   None    Shift=    0.000
 Gap=     0.015 Goal=   None    Shift=    0.000
 RMSDP=2.05D-07 MaxDP=2.03D-05 DE=-1.59D-07 OVMax= 1.73D-04

 Cycle  18  Pass 1  IDiag  1:
 RMSU=  6.73D-08    CP:  9.99D-01  1.00D+00  3.69D-01  2.24D-01  1.27D+00
                    CP:  1.73D+00  1.53D+00  9.57D-01
 E= -3948.32700270070     Delta-E=       -0.000000027823 Rises=F Damp=F
 DIIS: error= 1.15D-06 at cycle   9 NSaved=   9.
 NSaved= 9 IEnMin= 9 EnMin= -3948.32700270070     IErMin= 9 ErrMin= 1.15D-06
 ErrMax= 1.15D-06 EMaxC= 1.00D-01 BMatC= 2.25D-08 BMatP= 6.93D-08
 IDIUse=1 WtCom= 1.00D+00 WtEn= 0.00D+00
 Coeff-Com:  0.563D-03-0.501D-01-0.272D-01-0.255D-01-0.686D-01-0.152D-01
 Coeff-Com:  0.187D+00 0.479D+00 0.520D+00
 Coeff:      0.563D-03-0.501D-01-0.272D-01-0.255D-01-0.686D-01-0.152D-01
 Coeff:      0.187D+00 0.479D+00 0.520D+00
 Gap=     0.132 Goal=   None    Shift=    0.000
 Gap=     0.015 Goal=   None    Shift=    0.000
 RMSDP=1.22D-07 MaxDP=1.12D-05 DE=-2.78D-08 OVMax= 1.33D-04

 Cycle  19  Pass 1  IDiag  1:
 RMSU=  3.76D-08    CP:  9.99D-01  1.00D+00  3.69D-01  2.26D-01  1.32D+00
                    CP:  1.81D+00  1.64D+00  1.19D+00  5.32D-01
 E= -3948.32700270924     Delta-E=       -0.000000008535 Rises=F Damp=F
 DIIS: error= 7.24D-07 at cycle  10 NSaved=  10.
 NSaved=10 IEnMin=10 EnMin= -3948.32700270924     IErMin=10 ErrMin= 7.24D-07
 ErrMax= 7.24D-07 EMaxC= 1.00D-01 BMatC= 6.50D-09 BMatP= 2.25D-08
 IDIUse=1 WtCom= 1.00D+00 WtEn= 0.00D+00
 Coeff-Com:  0.540D-04-0.231D-02-0.611D-03-0.497D-02-0.171D-01-0.100D+00
 Coeff-Com:  0.274D-02 0.232D+00 0.427D+00 0.463D+00
 Coeff:      0.540D-04-0.231D-02-0.611D-03-0.497D-02-0.171D-01-0.100D+00
 Coeff:      0.274D-02 0.232D+00 0.427D+00 0.463D+00
 Gap=     0.132 Goal=   None    Shift=    0.000
 Gap=     0.015 Goal=   None    Shift=    0.000
 RMSDP=6.08D-08 MaxDP=6.37D-06 DE=-8.53D-09 OVMax= 7.96D-05

 Cycle  20  Pass 1  IDiag  1:
 RMSU=  2.20D-08    CP:  9.99D-01  1.00D+00  3.69D-01  2.26D-01  1.33D+00
                    CP:  1.83D+00  1.70D+00  1.20D+00  8.19D-01  5.57D-01
 E= -3948.32700271165     Delta-E=       -0.000000002416 Rises=F Damp=F
 DIIS: error= 3.86D-07 at cycle  11 NSaved=  11.
 NSaved=11 IEnMin=11 EnMin= -3948.32700271165     IErMin=11 ErrMin= 3.86D-07
 ErrMax= 3.86D-07 EMaxC= 1.00D-01 BMatC= 1.98D-09 BMatP= 6.50D-09
 IDIUse=1 WtCom= 1.00D+00 WtEn= 0.00D+00
 Coeff-Com: -0.106D-03 0.114D-01 0.690D-02 0.283D-02 0.543D-02-0.658D-01
 Coeff-Com: -0.444D-01 0.436D-01 0.173D+00 0.361D+00 0.505D+00
 Coeff:     -0.106D-03 0.114D-01 0.690D-02 0.283D-02 0.543D-02-0.658D-01
 Coeff:     -0.444D-01 0.436D-01 0.173D+00 0.361D+00 0.505D+00
 Gap=     0.132 Goal=   None    Shift=    0.000
 Gap=     0.015 Goal=   None    Shift=    0.000
 RMSDP=2.42D-08 MaxDP=2.23D-06 DE=-2.42D-09 OVMax= 2.41D-05

 Cycle  21  Pass 1  IDiag  1:
 RMSU=  1.09D-08    CP:  9.99D-01  1.00D+00  3.69D-01  2.26D-01  1.33D+00
                    CP:  1.83D+00  1.70D+00  1.22D+00  7.89D-01  8.22D-01
                    CP:  8.94D-01
 E= -3948.32700271209     Delta-E=       -0.000000000437 Rises=F Damp=F
 DIIS: error= 2.67D-07 at cycle  12 NSaved=  12.
 NSaved=12 IEnMin=12 EnMin= -3948.32700271209     IErMin=12 ErrMin= 2.67D-07
 ErrMax= 2.67D-07 EMaxC= 1.00D-01 BMatC= 5.22D-10 BMatP= 1.98D-09
 IDIUse=1 WtCom= 1.00D+00 WtEn= 0.00D+00
 Coeff-Com: -0.911D-04 0.848D-02 0.525D-02 0.305D-02 0.102D-01-0.909D-02
 Coeff-Com: -0.329D-01-0.581D-01-0.375D-01 0.966D-01 0.331D+00 0.683D+00
 Coeff:     -0.911D-04 0.848D-02 0.525D-02 0.305D-02 0.102D-01-0.909D-02
 Coeff:     -0.329D-01-0.581D-01-0.375D-01 0.966D-01 0.331D+00 0.683D+00
 Gap=     0.132 Goal=   None    Shift=    0.000
 Gap=     0.015 Goal=   None    Shift=    0.000
 RMSDP=1.54D-08 MaxDP=1.64D-06 DE=-4.37D-10 OVMax= 7.95D-06

 Cycle  22  Pass 1  IDiag  1:
 RMSU=  6.23D-09    CP:  9.99D-01  1.00D+00  3.69D-01  2.27D-01  1.33D+00
                    CP:  1.84D+00  1.71D+00  1.23D+00  8.15D-01  9.07D-01
                    CP:  1.18D+00  9.36D-01
 E= -3948.32700271217     Delta-E=       -0.000000000080 Rises=F Damp=F
 DIIS: error= 1.32D-07 at cycle  13 NSaved=  13.
 NSaved=13 IEnMin=13 EnMin= -3948.32700271217     IErMin=13 ErrMin= 1.32D-07
 ErrMax= 1.32D-07 EMaxC= 1.00D-01 BMatC= 2.23D-10 BMatP= 5.22D-10
 IDIUse=1 WtCom= 1.00D+00 WtEn= 0.00D+00
 Coeff-Com: -0.216D-04 0.142D-02 0.110D-02 0.646D-03 0.612D-02 0.217D-01
 Coeff-Com: -0.551D-02-0.640D-01-0.102D+00-0.875D-01 0.675D-03 0.524D+00
 Coeff-Com:  0.704D+00
 Coeff:     -0.216D-04 0.142D-02 0.110D-02 0.646D-03 0.612D-02 0.217D-01
 Coeff:     -0.551D-02-0.640D-01-0.102D+00-0.875D-01 0.675D-03 0.524D+00
 Coeff:      0.704D+00
 Gap=     0.132 Goal=   None    Shift=    0.000
 Gap=     0.015 Goal=   None    Shift=    0.000
 RMSDP=1.07D-08 MaxDP=1.17D-06 DE=-8.00D-11 OVMax= 4.85D-06

 Cycle  23  Pass 1  IDiag  1:
 RMSU=  3.21D-09    CP:  9.99D-01  1.00D+00  3.69D-01  2.26D-01  1.33D+00
                    CP:  1.83D+00  1.71D+00  1.23D+00  8.31D-01  9.85D-01
                    CP:  1.32D+00  1.32D+00  9.63D-01
 E= -3948.32700271267     Delta-E=       -0.000000000498 Rises=F Damp=F
 DIIS: error= 4.19D-08 at cycle  14 NSaved=  14.
 NSaved=14 IEnMin=14 EnMin= -3948.32700271267     IErMin=14 ErrMin= 4.19D-08
 ErrMax= 4.19D-08 EMaxC= 1.00D-01 BMatC= 3.47D-11 BMatP= 2.23D-10
 IDIUse=1 WtCom= 1.00D+00 WtEn= 0.00D+00
 Coeff-Com:  0.664D-05-0.940D-03-0.398D-03-0.463D-03 0.186D-02 0.139D-01
 Coeff-Com:  0.347D-02-0.252D-01-0.489D-01-0.717D-01-0.698D-01 0.160D+00
 Coeff-Com:  0.410D+00 0.628D+00
 Coeff:      0.664D-05-0.940D-03-0.398D-03-0.463D-03 0.186D-02 0.139D-01
 Coeff:      0.347D-02-0.252D-01-0.489D-01-0.717D-01-0.698D-01 0.160D+00
 Coeff:      0.410D+00 0.628D+00
 Gap=     0.132 Goal=   None    Shift=    0.000
 Gap=     0.015 Goal=   None    Shift=    0.000
 RMSDP=3.75D-09 MaxDP=4.51D-07 DE=-4.98D-10 OVMax= 1.58D-06

 SCF Done:  E(UB3LYP) =  -3948.32700271     A.U. after   23 cycles
             Convg  =    0.3746D-08             -V/T =  2.0066
 <Sx>= 0.0000 <Sy>= 0.0000 <Sz>= 0.5000 <S**2>= 0.7554 S= 0.5027
 <L.S>= 0.000000000000E+00
 KE= 3.922519424610D+03 PE=-4.161978798831D+04 EE= 1.750640745414D+04
[...]
    33  C    0.000000   0.000000   0.000000   0.000006  -0.000002
    34  C    0.000000   0.000000   0.000000   0.000000   0.000000
    35  C    0.000001  -0.000001   0.000000   0.000000   0.000000
    36  C    0.000000   0.000000   0.000000   0.000000   0.000000
    37  C    0.000000   0.000000   0.000000   0.000000   0.000000
    38  C    0.000000   0.000000   0.000000   0.000000   0.000000
    39  C    0.000000   0.000000   0.000000   0.000000   0.000000
    40  C    0.000000   0.000000   0.000000   0.000000   0.000000
    41  C    0.000000   0.000000   0.000000   0.000000   0.000000
    42  C    0.000000   0.000000   0.000000   0.000000   0.000000
    43  C    0.000000   0.000000   0.000000   0.000000   0.000000
    44  C    0.000000   0.000000   0.000000   0.000000   0.000000
    45  C    0.000000   0.000000   0.000000   0.000000   0.000000
    46  C    0.000000   0.000000   0.000000   0.000000   0.000000
    47  C    0.000000   0.000000   0.000000   0.000000   0.000000
    48  C   -0.000013   0.000001   0.000000   0.000000   0.000000
    49  C   -0.000078  -0.000053   0.000000   0.000000   0.000000
    50  C    0.000078   0.000046   0.000000   0.000000   0.000000
    51  C    0.000002  -0.000001   0.000000   0.000000   0.000000
    52  C    0.000000  -0.000001   0.000000   0.000000   0.000000
    53  C    0.000000   0.000000   0.000000   0.000000   0.000000
    54  C    0.000000   0.000000   0.000000   0.000000   0.000000
    55  C    0.000000   0.000000   0.000000   0.000000   0.000000
    56  C    0.000000   0.000000   0.000000   0.000000   0.000000
    57  C    0.000000   0.000000   0.000000   0.000000   0.000000
    58  C    0.000000   0.000000   0.000000  -0.000002   0.000001
    59  C    0.000000   0.000000   0.000000   0.000000   0.000000
    60  C    0.000000   0.000000   0.000000   0.000003   0.000007
    61  C    0.000000   0.000000  -0.000001  -0.000101  -0.000035
    62  C    0.000000   0.000000   0.000000  -0.000058  -0.000049
    63  C    0.000000   0.000000   0.000000   0.000002  -0.000001
    64  C    0.000000   0.000000   0.000000   0.000000   0.000000
    65  C    0.000000   0.000000   0.000000  -0.000001   0.000000
    66  C    0.000000   0.000000   0.000000  -0.000003   0.000000
    67  C    0.000000   0.000000   0.000000   0.000006  -0.000001
    68  C    0.000000   0.000000   0.000000   0.000000   0.000000
    69  C    0.000000   0.000000   0.000000   0.000000   0.000000
    70  C    0.000000   0.000000   0.000000   0.000000   0.000000
    71  C    0.000000   0.000000   0.000000   0.000000   0.000000
    72  C    0.000000   0.000000   0.000000   0.000000   0.000000
    73  C    0.000000   0.000000   0.000000   0.000000   0.000000
    74  C    0.000000   0.000000   0.000000   0.000000   0.000000
    75  C    0.000000   0.000000   0.000000   0.000000   0.000000
    76  C    0.000000   0.000000   0.000000   0.000000   0.000000
    77  C    0.000000   0.000000   0.000000   0.000000   0.000000
    78  H    0.000000   0.000000   0.000000   0.000000   0.000000
    79  H    0.000000   0.000000   0.000000   0.000000   0.000000
    80  H    0.000000   0.000000   0.000000   0.000000   0.000000
    81  H    0.000000   0.000000   0.000000   0.000000   0.000000
    82  H    0.000000   0.000000   0.000000   0.000000   0.000000
    83  H    0.000000   0.000000   0.000000   0.000000   0.000000
    84  H    0.000000   0.000000   0.000000   0.000000   0.000000
    85  H    0.000000   0.000000   0.000000   0.000000   0.000000
    86  H    0.000000   0.000000   0.000000   0.000000   0.000000
    87  H    0.000000   0.000000   0.000000   0.000000   0.000000
    88  H    0.000000   0.000000   0.000000   0.000000   0.000000
    89  H    0.000000   0.000000   0.000000   0.000000   0.000000
    90  O    0.000000   0.000000   0.000000   0.000000   0.000000
    91  C    0.000000   0.000000   0.000000   0.000000   0.000000
    92  O    0.000000   0.000000   0.000000   0.000000   0.000000
    93  C    0.000000   0.000000   0.000000   0.000000   0.000000
    94  O    0.000000   0.000000   0.000000   0.000000   0.000000
    95  O    0.000000   0.000000   0.000000   0.000000   0.000000
    96  C    0.000000   0.000000   0.000000   0.000000   0.000000
    97  C    0.000000   0.000000   0.000000   0.000000   0.000000
    98  H    0.000000   0.000000   0.000000   0.000000   0.000000
    99  H    0.000000   0.000000   0.000000   0.000000   0.000000
   100  H    0.000000   0.000000   0.000000   0.000000   0.000000
   101  H    0.000000   0.000000   0.000000   0.000000   0.000000
   102  H    0.000000   0.000000   0.000000   0.000000   0.000000
   103  H    0.000000   0.000000   0.000000   0.000000   0.000000
   104  H    0.000000   0.000000   0.000000   0.000000   0.000000
   105  H    0.000000   0.000000   0.000000   0.000000   0.000000
   106  H    0.000000   0.000000   0.000000   0.000000   0.000000
   107  H    0.000000   0.000000   0.000000   0.000000   0.000000
   108  H    0.000000   0.000000   0.000000   0.000000   0.000000
   109  H    0.000000   0.000000   0.000000   0.000000   0.000000
   110  H    0.000000   0.000000   0.000000   0.000000   0.000000
   111  H    0.000000   0.000000   0.000000   0.000000   0.000000
   112  H    0.000000   0.000000   0.000000   0.000000   0.000000
   113  H    0.000000   0.000000   0.000000   0.000000   0.000000
   114  H    0.000000   0.000000   0.000000   0.000000   0.000000
   115  H    0.000000   0.000000   0.000000   0.000000   0.000000
   116  H    0.000000   0.000000   0.000000   0.000000   0.000000
   117  H    0.000000   0.000000   0.000000   0.000000   0.000000
   118  H    0.000000   0.000000   0.000000   0.000000   0.000000
   119  H    0.000000   0.000000   0.000000   0.000000   0.000000
   120  H    0.000000   0.000000   0.000000   0.000000   0.000000
   121  H    0.000000   0.000000   0.000000   0.000000   0.000000
   122  H    0.000000   0.000000   0.000000   0.000000   0.000000
   123  H    0.000000   0.000000   0.000000   0.000000   0.000000
   124  H    0.000000   0.000000   0.000000   0.000000   0.000000
   125  H    0.000000   0.000000   0.000000   0.000000   0.000000
   126  O    0.000000   0.000000  -0.000003   0.000060   0.000035
   127  H    0.000000   0.000000  -0.000001   0.000019  -0.000003
   128  H    0.000000   0.000000   0.000000   0.000000   0.000000
   129  H    0.000000   0.000000   0.000000   0.000000   0.000000
   130  H    0.000000   0.000000   0.000000   0.000000   0.000000
   131  H    0.000000   0.000000   0.000000   0.000000   0.000000
   132  H    0.000000   0.000000   0.000000   0.000000   0.000000
   133  H    0.000000   0.000000   0.000000   0.000000   0.000000
   134  O    0.000000   0.000000   0.000000   0.000000   0.000000
   135  H    0.000000   0.000000   0.000000   0.000000   0.000000
   136  O    0.000000   0.000000   0.000000   0.000000   0.000000
   137  H    0.000000   0.000000   0.000000   0.000000   0.000000
   138  H    0.000000   0.000000   0.000000   0.000000   0.000000
   139  H    0.000000   0.000000   0.000000   0.000000   0.000000
   140  H    0.000000   0.000000   0.000000   0.000000   0.000000
   141  H    0.000000   0.000000   0.000000   0.000000   0.000000
   142  H    0.000000   0.000000   0.000000   0.000000   0.000000
   143  H    0.000012   0.000021   0.000000   0.000000   0.000000
   144  O    0.000044   0.000054   0.000000   0.000000   0.000000
   145  H    0.000000   0.000000   0.000000   0.000000   0.000000
   146  C    0.000000   0.000000   0.000000   0.000000   0.000000
   147  C    0.000000   0.000000   0.000000   0.000000   0.000000
   148  C    0.000055   0.000018   0.000000   0.000000   0.000000
   149  C    0.000000   0.000000   0.000007   0.000116   0.000114
   150  H    0.000000   0.000000   0.000000   0.000000   0.000000
   151  H    0.000000   0.000000   0.000000   0.000000   0.000000
   152  H    0.000000   0.000000   0.000000   0.000000   0.000000
   153  H    0.000000   0.000000   0.000000   0.000000   0.000000
   154  H    0.000000   0.000000   0.000000   0.000000   0.000000
   155  H    0.000000   0.000000   0.000000   0.000000   0.000000
   156  H   -0.000003   0.000005   0.000000   0.000000   0.000000
   157  H   -0.000272   0.000082   0.000000   0.000000   0.000000
   158  H    0.000082  -0.000260   0.000000   0.000000   0.000000
   159  H    0.000000   0.000000   0.000002  -0.000006   0.000005
   160  H    0.000000   0.000000  -0.000006  -0.000202   0.000108
   161  H    0.000000   0.000000   0.000005   0.000108  -0.000241
 Mulliken atomic spin densities:
              1
     1  C   -0.005495
     2  C    0.007578
     3  C    0.029583
     4  C    0.032384
     5  C    0.006391
     6  C    0.008931
     7  C    0.028407
     8  C    0.033366
     9  C    0.006850
    10  C    0.002538
    11  C    0.015931
    12  C    0.020911
    13  C   -0.001984
    14  C   -0.003832
    15  C    0.024039
    16  C    0.014202
    17  C    0.004886
    18  C    0.003176
    19  C    0.015754
    20  C    0.021758
    21  C   -0.002201
    22  C   -0.005203
    23  C    0.024769
    24  C    0.013892
    25  C    0.005366
    26  N    0.082531
    27  N    0.086912
    28  N    0.083749
    29  N    0.090906
    30  C   -0.009990
    31  C   -0.010189
    32  C   -0.002110
    33  C   -0.001368
    34  C   -0.001073
    35  C   -0.009661
    36  C   -0.000002
    37  C   -0.010166
    38  C    0.016662
    39  C   -0.003499
    40  C    0.019004
    41  C   -0.005623
    42  C    0.013185
    43  C    0.016598
    44  C   -0.004275
    45  C    0.018416
    46  C   -0.005103
    47  C    0.013037
    48  C    0.020357
    49  C   -0.009015
    50  C    0.029431
    51  C   -0.012292
    52  C    0.024221
    53  C    0.021341
    54  C   -0.009343
    55  C    0.029264
    56  C   -0.012118
    57  C    0.024264
    58  C    0.029879
    59  C   -0.013402
    60  C    0.033981
    61  C   -0.008747
    62  C    0.015373
    63  C    0.017375
    64  C   -0.005855
    65  C    0.018443
    66  C   -0.003750
    67  C    0.012361
    68  C    0.014497
    69  C   -0.005939
    70  C    0.019989
    71  C   -0.004591
    72  C    0.018296
    73  C    0.031872
    74  C   -0.014531
    75  C    0.036748
    76  C   -0.008998
    77  C    0.015620
    78  H   -0.000329
    79  H   -0.000241
    80  H   -0.001033
    81  H   -0.000087
    82  H   -0.000025
    83  H   -0.001116
    84  H    0.000018
    85  H   -0.001125
    86  H   -0.000113
    87  H   -0.000982
    88  H   -0.000303
    89  H   -0.000230
    90  O    0.009433
    91  C   -0.000762
    92  O    0.008812
    93  C   -0.000703
    94  O    0.009336
    95  O    0.008793
    96  C   -0.000710
    97  C   -0.000753
    98  H    0.000323
    99  H   -0.000649
   100  H   -0.000763
   101  H    0.000181
   102  H    0.000153
   103  H   -0.000780
   104  H    0.000218
   105  H   -0.000665
   106  H   -0.000845
   107  H    0.000202
   108  H    0.000242
   109  H   -0.000719
   110  H    0.000319
   111  H   -0.000827
   112  H    0.000153
   113  H   -0.000586
   114  H    0.000638
   115  H    0.000651
   116  H   -0.000010
   117  H    0.000645
   118  H    0.000648
   119  H   -0.000013
   120  H   -0.000013
   121  H    0.000690
   122  H    0.000680
   123  H    0.000692
   124  H    0.000697
   125  H   -0.000014
   126  O   -0.000144
   127  H   -0.000672
   128  H   -0.001406
   129  H    0.000545
   130  H   -0.001333
   131  H   -0.001340
   132  H    0.000615
   133  H   -0.001519
   134  O    0.000059
   135  H   -0.000701
   136  O   -0.001274
   137  H   -0.000857
   138  H   -0.001219
   139  H    0.000525
   140  H   -0.001100
   141  H   -0.001027
   142  H    0.000542
   143  H   -0.001226
   144  O   -0.001209
   145  H   -0.000818
   146  C    0.000054
   147  C    0.000117
   148  C    0.000105
   149  C    0.000065
   150  H    0.000002
   151  H   -0.000049
   152  H   -0.000039
   153  H   -0.000004
   154  H   -0.000100
   155  H   -0.000094
   156  H   -0.000004
   157  H   -0.000091
   158  H   -0.000089
   159  H    0.000002
   160  H   -0.000058
   161  H   -0.000054
 Sum of Mulliken atomic spin densities =   1.00000
 Electronic spatial extent (au):  <R**2>=         110017.0100
 Charge=              1.0000 electrons
 Dipole moment (field-independent basis, Debye):
    X=              2.4814    Y=              2.2846    Z=              2.7073  Tot=              4.3251
 Quadrupole moment (field-independent basis, Debye-Ang):
   XX=           -341.8606   YY=           -388.4455   ZZ=           -448.6977
   XY=             10.3215   XZ=            -11.2531   YZ=             -0.6439
 Traceless Quadrupole moment (field-independent basis, Debye-Ang):
   XX=             51.1406   YY=              4.5558   ZZ=            -55.6964
   XY=             10.3215   XZ=            -11.2531   YZ=             -0.6439
 Octapole moment (field-independent basis, Debye-Ang**2):
  XXX=            497.7698  YYY=            142.3663  ZZZ=            101.5196  XYY=           -276.5174
  XXY=            177.5910  XXZ=            141.0194  XZZ=             35.3817  YZZ=            171.2218
  YYZ=             73.3738  XYZ=           -107.8606
 Hexadecapole moment (field-independent basis, Debye-Ang**3):
 XXXX=         -54309.3264 YYYY=         -53399.1510 ZZZZ=         -20077.2883 XXXY=           -135.0728
 XXXZ=          -1663.2650 YYYX=            956.8854 YYYZ=            131.8438 ZZZX=           -424.0511
 ZZZY=            -98.7542 XXYY=         -15187.7753 XXZZ=         -10791.1414 YYZZ=         -11070.9334
 XXYZ=            -34.6237 YYXZ=           -577.6185 ZZXY=            -35.8993
 N-N= 1.624253410685D+04 E-N=-6.239977003117D+04  KE= 5.882851146263D+03
 Leave Link  601 at Tue Jan 27 19:37:24 2015, MaxMem= 2147483648 cpu:     111.1
 (Enter /opt/g09/l9999.exe)
 1\1\GINC-CHPC-SCANDIUM\SP\UB3LYP\CC-pVDZ\C81H68N4O8(1+,2)\JARVIST\27-J
 an-2015\0\\#p sp B3LYP/cc-pVDZ\\Auto Spiro; and yes I said yes I will 
 Yes.\\1,2\C,0,-0.044978,-0.030016,-0.1131\C,0,0.722977,-0.921813,0.869
 724\C,0,0.412972,-0.573761,2.199242\C,0,-0.552392,0.52718,2.185568\C,0
 ,-0.834772,0.866458,0.847817\C,0,0.859758,0.74817,-1.075572\C,0,0.5363
 19,0.445077,-2.412626\C,0,-0.568733,-0.515585,-2.42402\C,0,-0.925418,-
 0.812519,-1.094359\C,0,1.88398,1.628013,-0.763846\C,0,2.605637,2.24126
 5,-1.805674\C,0,2.272294,1.949288,-3.142161\C,0,1.252825,1.0506,-3.447
 895\C,0,-1.181563,1.22586,3.218597\C,0,-2.071062,2.252328,2.910189\C,0
 ,-2.360093,2.586904,1.572999\C,0,-1.731866,1.874293,0.532799\C,0,1.625
 305,-1.932878,0.580544\C,0,2.231349,-2.637514,1.63854\C,0,1.914796,-2.
 295034,2.966872\C,0,1.019426,-1.266104,3.250048\C,0,-1.259251,-1.12634
 7,-3.473902\C,0,-2.285074,-2.024096,-3.189704\C,0,-2.651071,-2.3116,-1
 .860211\C,0,-1.956557,-1.69167,-0.803734\N,0,3.650946,3.15667,-1.50869
 \N,0,-3.289841,3.619404,1.284229\N,0,3.167989,-3.672872,1.375218\N,0,-
 3.699695,-3.228581,-1.587511\C,0,-4.882269,-3.228401,-2.373662\C,0,2.9
 49035,-4.606341,0.33023\C,0,-3.56629,-4.151299,-0.51001\C,0,4.349998,-
 3.760392,2.167312\C,0,3.46865,4.108841,-0.463568\C,0,4.860506,3.134884
 ,-2.24758\C,0,-4.470105,3.735047,2.077546\C,0,-3.071912,4.519695,0.210
 611\C,0,-4.852715,4.966604,2.618475\C,0,-6.012703,5.088329,3.386555\C,
 0,-6.798543,3.959727,3.645509\C,0,-6.414906,2.718619,3.116181\C,0,-5.2
 7309,2.610744,2.334824\C,0,4.464658,4.324604,0.494444\C,0,4.29629,5.26
 5477,1.51256\C,0,3.103887,5.992148,1.600731\C,0,2.094049,5.771739,0.65
 2311\C,0,2.278527,4.851236,-0.370226\C,0,5.520728,4.328325,-2.559398\C
 ,0,6.727935,4.310119,-3.267994\C,0,7.282201,3.097946,-3.694765\C,0,6.6
 07541,1.911458,-3.388027\C,0,5.419056,1.911757,-2.669214\C,0,-4.149061
 ,4.970445,-0.559406\C,0,-3.946686,5.880152,-1.604148\C,0,-2.65941,6.33
 7361,-1.906998\C,0,-1.588202,5.871739,-1.137171\C,0,-1.774365,4.983015
 ,-0.085643\C,0,1.659645,-5.079102,0.046923\C,0,1.477192,-6.001612,-0.9
 85033\C,0,2.549858,-6.478255,-1.73008\C,0,3.839812,-6.009612,-1.441979
 \C,0,4.040766,-5.071902,-0.426617\C,0,5.134803,-2.628655,2.411593\C,0,
 6.284822,-2.703225,3.201022\C,0,6.680291,-3.931534,3.741982\C,0,5.9045
 2,-5.073749,3.492666\C,0,4.750848,-4.986789,2.726461\C,0,-2.379187,-4.
 884691,-0.335141\C,0,-2.248175,-5.783431,0.714498\C,0,-3.308301,-5.991
 345,1.609703\C,0,-4.497394,-5.273665,1.440678\C,0,-4.6132,-4.354258,0.
 39563\C,0,-5.459687,-2.024661,-2.799271\C,0,-6.622072,-2.054396,-3.572
 177\C,0,-7.231635,-3.255862,-3.914833\C,0,-6.656794,-4.460543,-3.48288
 4\C,0,-5.483531,-4.45134,-2.725656\H,0,-2.234951,-1.904703,0.223631\H,
 0,1.870168,-2.185008,-0.446483\H,0,2.379867,-2.846692,3.777451\H,0,0.7
 90471,-1.02169,4.284329\H,0,-0.975622,0.987606,4.25915\H,0,-2.553073,2
 .808346,3.70759\H,0,-0.995178,-0.921956,-4.508451\H,0,-2.815706,-2.513
 539,-3.999761\H,0,1.014103,0.841416,-4.487627\H,0,2.823179,2.435432,-3
 .940771\H,0,-1.957061,2.116702,-0.500918\H,0,2.136697,1.847219,0.26894
 3\O,0,-3.08135,-6.907104,2.598941\C,0,-4.11377,-7.141085,3.541279\O,0,
 7.789672,-4.123387,4.517971\C,0,8.606606,-3.000975,4.803893\O,0,-7.944
 016,3.960086,4.391963\O,0,2.82838,6.928384,2.558018\C,0,3.812703,7.181
 852,3.54555\C,0,-8.378205,5.189469,4.947888\H,0,-7.038061,1.852957,3.3
 18239\H,0,-4.99089,1.648732,1.918402\H,0,5.388185,3.756806,0.439285\H,
 0,5.093462,5.408485,2.233243\H,0,-6.281026,6.060218,3.784873\H,0,-4.24
 0864,5.843419,2.430264\H,0,1.175278,6.345118,0.729693\H,0,1.493826,4.6
 93337,-1.103716\H,0,-5.534024,-3.791421,0.278566\H,0,-5.331904,-5.4051
 28,2.120179\H,0,-1.33247,-6.349822,0.854757\H,0,-1.55489,-4.737387,-1.
 026195\H,0,6.865033,-1.803512,3.371912\H,0,4.839522,-1.674874,1.985261
 \H,0,6.217782,-6.018561,3.926147\H,0,4.149415,-5.873296,2.550783\H,0,8
 .052147,-2.224947,5.348776\H,0,9.029204,-2.563601,3.889116\H,0,9.41800
 1,-3.372356,5.432791\H,0,4.745751,7.554527,3.101393\H,0,4.031825,6.283
 731,4.138766\H,0,3.392974,7.950056,4.197858\H,0,-9.296796,4.964706,5.4
 93332\H,0,-8.592908,5.933143,4.168498\H,0,-7.636406,5.603963,5.643973\
 H,0,-5.022419,-7.527269,3.059525\H,0,-4.364849,-6.230249,4.101406\H,0,
 -3.725777,-7.892571,4.231563\O,0,4.841194,-6.518742,-2.220868\H,0,5.02
 8857,-4.688336,-0.208124\H,0,2.419095,-7.203566,-2.526161\H,0,0.476711
 ,-6.369432,-1.198859\H,0,0.814734,-4.72987,0.629913\H,0,-5.004768,-1.0
 80075,-2.522424\H,0,-7.067577,-1.117871,-3.897407\H,0,-8.141069,-3.290
 133,-4.5055\O,0,-7.310163,-5.59817,-3.867552\H,0,-5.018579,-5.3734,-2.
 401349\O,0,-5.078039,6.24914,-2.278442\H,0,-5.157467,4.625276,-0.36211
 8\H,0,-2.481975,7.038243,-2.71378\H,0,-0.586403,6.23109,-1.359377\H,0,
 -0.931251,4.647509,0.507886\H,0,4.921772,0.979623,-2.425662\H,0,7.0343
 32,0.964085,-3.707512\H,0,8.213022,3.064191,-4.248\O,0,7.27854,5.53960
 4,-3.506067\H,0,5.111845,5.285953,-2.258026\C,0,-6.779729,-6.849063,-3
 .462328\C,0,-4.942106,7.133354,-3.377804\C,0,8.480441,5.600417,-4.2545
 52\C,0,6.170254,-6.090928,-1.974311\H,0,-7.457708,-7.605394,-3.862751\
 H,0,-6.74168,-6.938303,-2.368465\H,0,-5.773224,-7.013562,-3.869815\H,0
 ,-5.949928,7.27894,-3.77171\H,0,-4.303935,6.70757,-4.163684\H,0,-4.531
 002,8.104076,-3.069391\H,0,8.729272,6.660336,-4.336507\H,0,8.353215,5.
 179486,-5.261018\H,0,9.301185,5.074822,-3.747945\H,0,6.795732,-6.63217
 7,-2.686981\H,0,6.491299,-6.332993,-0.952454\H,0,6.285619,-5.011209,-2
 .13925\\Version=EM64L-G09RevA.02\State=2-A\HF=-3948.3270027\S2=0.75538
 5\S2-1=0.\S2A=0.750028\RMSD=3.746e-09\Dipole=0.9762634,0.8988387,1.065
 1413\Quadrupole=38.0217866,3.3871259,-41.4089125,7.6737964,-8.3664357,
 -0.4787203\PG=C01 [X(C81H68N4O8)]\\@


 THE MOST BEAUTIFUL EXPERIENCE WE CAN HAVE IS THE MYSTERIOUS.
 IT IS THE FUNDAMENTAL EMOTION WHICH STANDS AT AT THE CRADLE 
 OF TRUE ART AND TRUE SCIENCE.

                                    -- ALBERT EINSTEIN
 Job cpu time:  0 days 23 hours  4 minutes  4.8 seconds.
 File lengths (MBytes):  RWF=   2510 Int=      0 D2E=      0 Chk=    125 Scr=      1
 Normal termination of Gaussian 09 at Tue Jan 27 19:37:25 2015.
