 Entering Gaussian System, Link 0=g09
 Input=sp_5_B3LYP_cc-pVDZ.com
 Output=sp_5_B3LYP_cc-pVDZ.log
 Initial command:
 /opt/g09/l1.exe /home/jarvist/2014-07_SPIRO/b3lyp-631gs_opt/delta_scf/cation/Gau-17892.inp -scrdir=/home/jarvist/2014-07_SPIRO/b3lyp-631gs_opt/delta_scf/cation/
 Default is to use a total of   8 processors:
                                8 via shared-memory
                                1 via Linda
 Entering Link 1 = /opt/g09/l1.exe PID=     17894.
  
 Copyright (c) 1988,1990,1992,1993,1995,1998,2003,2009, Gaussian, Inc.
                  All Rights Reserved.
  
 This is part of the Gaussian(R) 09 program.  It is based on
 the Gaussian(R) 03 system (copyright 2003, Gaussian, Inc.),
 the Gaussian(R) 98 system (copyright 1998, Gaussian, Inc.),
 the Gaussian(R) 94 system (copyright 1995, Gaussian, Inc.),
 the Gaussian 92(TM) system (copyright 1992, Gaussian, Inc.),
 the Gaussian 90(TM) system (copyright 1990, Gaussian, Inc.),
 the Gaussian 88(TM) system (copyright 1988, Gaussian, Inc.),
 the Gaussian 86(TM) system (copyright 1986, Carnegie Mellon
 University), and the Gaussian 82(TM) system (copyright 1983,
 Carnegie Mellon University). Gaussian is a federally registered
 trademark of Gaussian, Inc.
  
 This software contains proprietary and confidential information,
 including trade secrets, belonging to Gaussian, Inc.
  
 This software is provided under written license and may be
 used, copied, transmitted, or stored only in accord with that
 written license.
  
 The following legend is applicable only to US Government
 contracts under FAR:
  
                    RESTRICTED RIGHTS LEGEND
  
 Use, reproduction and disclosure by the US Government is
 subject to restrictions as set forth in subparagraphs (a)
 and (c) of the Commercial Computer Software - Restricted
 Rights clause in FAR 52.227-19.
  
 Gaussian, Inc.
 340 Quinnipiac St., Bldg. 40, Wallingford CT 06492
  
  
 ---------------------------------------------------------------
 Warning -- This program may not be used in any manner that
 competes with the business of Gaussian, Inc. or will provide
 assistance to any competitor of Gaussian, Inc.  The licensee
 of this program is prohibited from giving any competitor of
 Gaussian, Inc. access to this program.  By using this program,
 the user acknowledges that Gaussian, Inc. is engaged in the
 business of creating and licensing software in the field of
 computational chemistry and represents and warrants to the
 licensee that it is not a competitor of Gaussian, Inc. and that
 it will not use this program in any manner prohibited above.
 ---------------------------------------------------------------
  

 Cite this work as:
 Gaussian 09, Revision A.02,
 M. J. Frisch, G. W. Trucks, H. B. Schlegel, G. E. Scuseria, 
 M. A. Robb, J. R. Cheeseman, G. Scalmani, V. Barone, B. Mennucci, 
 G. A. Petersson, H. Nakatsuji, M. Caricato, X. Li, H. P. Hratchian, 
 A. F. Izmaylov, J. Bloino, G. Zheng, J. L. Sonnenberg, M. Hada, 
 M. Ehara, K. Toyota, R. Fukuda, J. Hasegawa, M. Ishida, T. Nakajima, 
 Y. Honda, O. Kitao, H. Nakai, T. Vreven, J. A. Montgomery, Jr., 
 J. E. Peralta, F. Ogliaro, M. Bearpark, J. J. Heyd, E. Brothers, 
 K. N. Kudin, V. N. Staroverov, R. Kobayashi, J. Normand, 
 K. Raghavachari, A. Rendell, J. C. Burant, S. S. Iyengar, J. Tomasi, 
 M. Cossi, N. Rega, J. M. Millam, M. Klene, J. E. Knox, J. B. Cross, 
 V. Bakken, C. Adamo, J. Jaramillo, R. Gomperts, R. E. Stratmann, 
 O. Yazyev, A. J. Austin, R. Cammi, C. Pomelli, J. W. Ochterski, 
 R. L. Martin, K. Morokuma, V. G. Zakrzewski, G. A. Voth, 
 P. Salvador, J. J. Dannenberg, S. Dapprich, A. D. Daniels, 
 O. Farkas, J. B. Foresman, J. V. Ortiz, J. Cioslowski, 
 and D. J. Fox, Gaussian, Inc., Wallingford CT, 2009.
 
 ******************************************
 Gaussian 09:  EM64L-G09RevA.02 11-Jun-2009
                27-Jan-2015 
 ******************************************
 %mem=16GB
 %nprocs=24
 Will use up to   24 processors via shared memory.
 Default route:  MaxDisk=100GB
 -------------------
 #p sp B3LYP/cc-pVDZ
 -------------------
 1/38=1/1;
 2/12=2,17=6,18=5,40=1/2;
 3/5=16,11=2,16=1,25=1,30=1,74=-5/1,2,3;
 4//1;
 5/5=2,38=5/2;
 6/7=2,8=2,9=2,10=2,28=1/1;
 99/5=1,9=1/99;
 Leave Link    1 at Tue Jan 27 19:37:25 2015, MaxMem= 2147483648 cpu:       2.2
 (Enter /opt/g09/l101.exe)
 ------------------------------------------
 Auto Spiro; and yes I said yes I will Yes.
 ------------------------------------------
 Symbolic Z-matrix:
 Charge =  1 Multiplicity = 2
 C                    -0.01655   0.04969   0.16246 
 C                     0.76337   0.93618  -0.81609 
 C                     0.44538   0.60446  -2.14676 
 C                    -0.54884  -0.47189  -2.1399 
 C                    -0.81936  -0.82931  -0.80586 
 C                     0.87851  -0.73464   1.12927 
 C                     0.53806  -0.44762   2.4675 
 C                    -0.59043   0.48634   2.47503 
 C                    -0.90999   0.82057   1.14258 
 C                     1.91722  -1.59535   0.82162 
 C                     2.64823  -2.19331   1.86541 
 C                     2.31948  -1.89798   3.19938 
 C                     1.27228  -1.02831   3.50371 
 C                    -1.21053  -1.12176  -3.18562 
 C                    -2.12882  -2.126    -2.88983 
 C                    -2.40176  -2.48138  -1.55781 
 C                    -1.73792  -1.82645  -0.50764 
 C                     1.69827   1.92292  -0.53267 
 C                     2.32769   2.59372  -1.59389 
 C                     2.00445   2.26638  -2.92145 
 C                     1.0713    1.27185  -3.20333 
 C                    -1.34313   1.03012   3.51724 
 C                    -2.38227   1.91471   3.22569 
 C                    -2.68116   2.2673    1.89855 
 C                    -1.93613   1.69998   0.84786 
 N                     3.7131   -3.08182   1.56989 
 N                    -3.34659  -3.51056  -1.26458 
 N                     3.29279   3.61072  -1.31978 
 N                    -3.72782   3.18646   1.61691 
 C                    -4.98021   3.05987   2.2722 
 C                     2.85803   4.76703  -0.61518 
 C                    -3.54935   4.16966   0.60557 
 C                     4.627     3.49395  -1.75759 
 C                     3.55679  -4.07297   0.56811 
 C                     4.94355  -2.96131   2.26594 
 C                    -4.68187  -3.43518  -1.71129 
 C                    -2.87929  -4.6657   -0.57878 
 C                    -5.48632  -4.58     -1.80212 
 C                    -6.81862  -4.50269  -2.21705 
 C                    -7.37713  -3.27154  -2.56808 
 C                    -6.58158  -2.1217   -2.48537 
 C                    -5.26286  -2.19761  -2.05784 
 C                     4.60528  -4.41354  -0.29184 
 C                     4.4461   -5.39961  -1.27156 
 C                     3.21708  -6.0487   -1.41443 
 C                     2.16428  -5.71833  -0.55053 
 C                     2.33352  -4.75365   0.42935 
 C                     5.42066  -4.01768   3.072 
 C                     6.64681  -3.90807   3.74016 
 C                     7.38163  -2.72925   3.62574 
 C                     6.92842  -1.66269   2.85238 
 C                     5.71463  -1.78177   2.16143 
 C                    -3.19607  -4.87769   0.77867 
 C                    -2.74059  -6.02223   1.4467 
 C                    -1.95917  -6.94607   0.75528 
 C                    -1.62434  -6.76198  -0.58464 
 C                    -2.08997  -5.62105  -1.25465 
 C                     2.07661   5.74307  -1.27055 
 C                     1.64098   6.88516  -0.58222 
 C                     1.99873   7.0503    0.75426 
 C                     2.77369   6.10608   1.42528 
 C                     3.19794   4.96008   0.73964 
 C                     5.16373   2.25553  -2.14352 
 C                     6.4876    2.13968  -2.5775 
 C                     7.3169    3.26284  -2.61953 
 C                     6.79451   4.50104  -2.2258 
 C                     5.47539   4.61815  -1.80964 
 C                    -2.31645   4.83439   0.47933 
 C                    -2.12091   5.78975  -0.50556 
 C                    -3.15675   6.12291  -1.38758 
 C                    -4.39386   5.48477  -1.26073 
 C                    -4.57941   4.50996  -0.27595 
 C                    -5.70383   1.83974   2.20759 
 C                    -6.9472    1.7184    2.83661 
 C                    -7.50027   2.8148    3.5023 
 C                    -6.81684   4.0237    3.56352 
 C                    -5.55961   4.14228   2.9633 
 H                    -2.18594   1.94435  -0.17943 
 H                     1.97017   2.16885   0.48922 
 H                     2.49262   2.80961  -3.72376 
 H                     0.82958   1.02971  -4.23532 
 H                    -1.00738  -0.85923  -4.22094 
 H                    -2.64211  -2.65615  -3.68524 
 H                    -1.12426   0.77902   4.55244 
 H                    -2.9718    2.34154   4.03145 
 H                     1.0297   -0.81929   4.54302 
 H                     2.88795  -2.36814   3.99596 
 H                    -1.97043  -2.09344   0.5187 
 H                     2.18749  -1.80295  -0.20878 
 O                    -2.85339   7.0748   -2.33089 
 C                    -3.8685    7.44263  -3.24799 
 O                     8.63075   3.26153  -3.02266 
 C                     9.18895   2.03152  -3.44094 
 O                    -8.6694   -3.08242  -2.99479 
 O                     2.93665  -7.01123  -2.35521 
 C                     3.96651  -7.36976  -3.25816 
 C                    -9.4981   -4.2226   -3.10869 
 H                    -7.01997  -1.1653   -2.75491 
 H                    -4.67291  -1.28991  -1.99339 
 H                     5.55794  -3.90089  -0.20136 
 H                     5.28191  -5.63154  -1.92247 
 H                    -7.40086  -5.4163   -2.26919 
 H                    -5.07177  -5.54906  -1.54592 
 H                     1.21798  -6.24068  -0.6463 
 H                     1.51198  -4.5195    1.09786 
 H                    -5.53976   4.01073  -0.19506 
 H                    -5.21686   5.71974  -1.92641 
 H                    -1.16617   6.29778  -0.59307 
 H                    -1.50244   4.59025   1.15397 
 H                     6.85262   1.16181  -2.87211 
 H                     4.54328   1.36676  -2.11224 
 H                     7.44082   5.37308  -2.26365 
 H                     5.09386   5.59215  -1.52278 
 H                     8.65568   1.61495  -4.30718 
 H                     9.18741   1.28598  -2.63288 
 H                     10.22102   2.24792  -3.72564 
 H                     4.83922  -7.78411  -2.73459 
 H                     4.28993  -6.51361  -3.86618 
 H                     3.54398  -8.13578  -3.91199 
 H                    -10.46549  -3.86025  -3.46342 
 H                    -9.63498  -4.72622  -2.14107 
 H                    -9.09757  -4.94758  -3.8314 
 H                    -4.74234   7.86752  -2.73555 
 H                    -4.19294   6.58855  -3.85812 
 H                    -3.42896   8.20241  -3.89774 
 H                     3.02958   6.25993   2.46638 
 O                     3.94016   3.96535   1.30464 
 H                     1.66561   7.9374    1.28616 
 H                     1.04737   7.64188  -1.08086 
 O                     1.8066    5.49342  -2.57865 
 O                    -5.11156   0.84462   1.4944 
 H                    -7.49977   0.78802   2.78228 
 H                    -8.47409   2.71673   3.97412 
 H                    -7.22856   4.8899    4.07113 
 O                    -4.94699   5.37347   3.00714 
 H                    -2.97671  -6.19001   2.49029 
 O                    -3.94739  -3.90253   1.36547 
 H                    -1.60204  -7.83163   1.27398 
 H                    -1.02511  -7.50316  -1.09956 
 O                    -1.84352  -5.35308  -2.56404 
 O                     5.19667  -0.81427   1.35887 
 H                     7.52424  -0.76176   2.77139 
 H                     8.32857  -2.6403    4.15142 
 H                     7.01713  -4.71833   4.35647 
 O                     4.60728  -5.10834   3.14342 
 C                    -1.02432  -6.25025  -3.30251 
 C                     5.86569   0.43649   1.28022 
 C                     1.00585   6.42109  -3.30025 
 C                    -5.75291  -0.42072   1.42349 
 H                    -0.96705  -5.83206  -4.30898 
 H                    -1.47043  -7.25229  -3.35282 
 H                    -0.01361  -6.3211   -2.88269 
 H                    -6.71538  -0.35604   0.89984 
 H                    -5.91586  -0.83984   2.42569 
 H                    -5.08139  -1.07123   0.862 
 H                     1.47772   7.41167  -3.34005 
 H                    -0.00053   6.51189  -2.87407 
 H                     0.93265   6.01785  -4.3118 
 H                     5.24372   1.07549   0.65245 
 H                     6.85796   0.33555   0.82143 
 H                     5.97406   0.89168   2.27375 
 C                     5.04702  -6.23279   3.88579 
 H                     4.2593   -6.98136   3.78351 
 H                     5.18155  -5.99025   4.94857 
 H                     5.98652  -6.63797   3.48758 
 C                    -4.31125  -4.06362   2.72806 
 H                    -4.89844  -3.18028   2.9841 
 H                    -3.42894  -4.11224   3.37901 
 H                    -4.92277  -4.96284   2.87747 
 C                     4.33825   4.10992   2.65937 
 H                     4.91372   3.21347   2.89599 
 H                     4.97048   4.99601   2.80045 
 H                     3.47239   4.1709    3.33115 
 C                    -3.78999   5.46894   3.83612 
 H                    -4.02924   5.19587   4.87323 
 H                    -3.47837   6.51535   3.80012 
 H                    -2.97328   4.8367    3.47278 
 
 NAtoms=    177 NQM=    177 NQMF=      0 NMic=      0 NMicF=      0 NTot=    177.
                    Isotopes and Nuclear Properties:
 (Nuclear quadrupole moments (NQMom) in fm**2, nuclear magnetic moments (NMagM)
  in nuclear magnetons)

  Atom         1           2           3           4           5           6           7           8           9          10
 IAtWgt=          12          12          12          12          12          12          12          12          12          12
 AtmWgt=  12.0000000  12.0000000  12.0000000  12.0000000  12.0000000  12.0000000  12.0000000  12.0000000  12.0000000  12.0000000
 NucSpn=           0           0           0           0           0           0           0           0           0           0
 AtZEff=   0.0000000   0.0000000   0.0000000   0.0000000   0.0000000   0.0000000   0.0000000   0.0000000   0.0000000   0.0000000
 NQMom=    0.0000000   0.0000000   0.0000000   0.0000000   0.0000000   0.0000000   0.0000000   0.0000000   0.0000000   0.0000000
 NMagM=    0.0000000   0.0000000   0.0000000   0.0000000   0.0000000   0.0000000   0.0000000   0.0000000   0.0000000   0.0000000

  Atom        11          12          13          14          15          16          17          18          19          20
 IAtWgt=          12          12          12          12          12          12          12          12          12          12
 AtmWgt=  12.0000000  12.0000000  12.0000000  12.0000000  12.0000000  12.0000000  12.0000000  12.0000000  12.0000000  12.0000000
 NucSpn=           0           0           0           0           0           0           0           0           0           0
 AtZEff=   0.0000000   0.0000000   0.0000000   0.0000000   0.0000000   0.0000000   0.0000000   0.0000000   0.0000000   0.0000000
 NQMom=    0.0000000   0.0000000   0.0000000   0.0000000   0.0000000   0.0000000   0.0000000   0.0000000   0.0000000   0.0000000
 NMagM=    0.0000000   0.0000000   0.0000000   0.0000000   0.0000000   0.0000000   0.0000000   0.0000000   0.0000000   0.0000000

  Atom        21          22          23          24          25          26          27          28          29          30
 IAtWgt=          12          12          12          12          12          14          14          14          14          12
 AtmWgt=  12.0000000  12.0000000  12.0000000  12.0000000  12.0000000  14.0030740  14.0030740  14.0030740  14.0030740  12.0000000
 NucSpn=           0           0           0           0           0           2           2           2           2           0
 AtZEff=   0.0000000   0.0000000   0.0000000   0.0000000   0.0000000   0.0000000   0.0000000   0.0000000   0.0000000   0.0000000
 NQMom=    0.0000000   0.0000000   0.0000000   0.0000000   0.0000000   2.0440000   2.0440000   2.0440000   2.0440000   0.0000000
 NMagM=    0.0000000   0.0000000   0.0000000   0.0000000   0.0000000   0.4037610   0.4037610   0.4037610   0.4037610   0.0000000

  Atom        31          32          33          34          35          36          37          38          39          40
 IAtWgt=          12          12          12          12          12          12          12          12          12          12
 AtmWgt=  12.0000000  12.0000000  12.0000000  12.0000000  12.0000000  12.0000000  12.0000000  12.0000000  12.0000000  12.0000000
 NucSpn=           0           0           0           0           0           0           0           0           0           0
 AtZEff=   0.0000000   0.0000000   0.0000000   0.0000000   0.0000000   0.0000000   0.0000000   0.0000000   0.0000000   0.0000000
 NQMom=    0.0000000   0.0000000   0.0000000   0.0000000   0.0000000   0.0000000   0.0000000   0.0000000   0.0000000   0.0000000
 NMagM=    0.0000000   0.0000000   0.0000000   0.0000000   0.0000000   0.0000000   0.0000000   0.0000000   0.0000000   0.0000000

  Atom        41          42          43          44          45          46          47          48          49          50
 IAtWgt=          12          12          12          12          12          12          12          12          12          12
 AtmWgt=  12.0000000  12.0000000  12.0000000  12.0000000  12.0000000  12.0000000  12.0000000  12.0000000  12.0000000  12.0000000
 NucSpn=           0           0           0           0           0           0           0           0           0           0
 AtZEff=   0.0000000   0.0000000   0.0000000   0.0000000   0.0000000   0.0000000   0.0000000   0.0000000   0.0000000   0.0000000
 NQMom=    0.0000000   0.0000000   0.0000000   0.0000000   0.0000000   0.0000000   0.0000000   0.0000000   0.0000000   0.0000000
 NMagM=    0.0000000   0.0000000   0.0000000   0.0000000   0.0000000   0.0000000   0.0000000   0.0000000   0.0000000   0.0000000

  Atom        51          52          53          54          55          56          57          58          59          60
 IAtWgt=          12          12          12          12          12          12          12          12          12          12
 AtmWgt=  12.0000000  12.0000000  12.0000000  12.0000000  12.0000000  12.0000000  12.0000000  12.0000000  12.0000000  12.0000000
 NucSpn=           0           0           0           0           0           0           0           0           0           0
 AtZEff=   0.0000000   0.0000000   0.0000000   0.0000000   0.0000000   0.0000000   0.0000000   0.0000000   0.0000000   0.0000000
 NQMom=    0.0000000   0.0000000   0.0000000   0.0000000   0.0000000   0.0000000   0.0000000   0.0000000   0.0000000   0.0000000
 NMagM=    0.0000000   0.0000000   0.0000000   0.0000000   0.0000000   0.0000000   0.0000000   0.0000000   0.0000000   0.0000000

  Atom        61          62          63          64          65          66          67          68          69          70
 IAtWgt=          12          12          12          12          12          12          12          12          12          12
 AtmWgt=  12.0000000  12.0000000  12.0000000  12.0000000  12.0000000  12.0000000  12.0000000  12.0000000  12.0000000  12.0000000
 NucSpn=           0           0           0           0           0           0           0           0           0           0
 AtZEff=   0.0000000   0.0000000   0.0000000   0.0000000   0.0000000   0.0000000   0.0000000   0.0000000   0.0000000   0.0000000
 NQMom=    0.0000000   0.0000000   0.0000000   0.0000000   0.0000000   0.0000000   0.0000000   0.0000000   0.0000000   0.0000000
 NMagM=    0.0000000   0.0000000   0.0000000   0.0000000   0.0000000   0.0000000   0.0000000   0.0000000   0.0000000   0.0000000

  Atom        71          72          73          74          75          76          77          78          79          80
 IAtWgt=          12          12          12          12          12          12          12           1           1           1
 AtmWgt=  12.0000000  12.0000000  12.0000000  12.0000000  12.0000000  12.0000000  12.0000000   1.0078250   1.0078250   1.0078250
 NucSpn=           0           0           0           0           0           0           0           1           1           1
 AtZEff=   0.0000000   0.0000000   0.0000000   0.0000000   0.0000000   0.0000000   0.0000000   0.0000000   0.0000000   0.0000000
 NQMom=    0.0000000   0.0000000   0.0000000   0.0000000   0.0000000   0.0000000   0.0000000   0.0000000   0.0000000   0.0000000
 NMagM=    0.0000000   0.0000000   0.0000000   0.0000000   0.0000000   0.0000000   0.0000000   2.7928460   2.7928460   2.7928460

  Atom        81          82          83          84          85          86          87          88          89          90
 IAtWgt=           1           1           1           1           1           1           1           1           1          16
 AtmWgt=   1.0078250   1.0078250   1.0078250   1.0078250   1.0078250   1.0078250   1.0078250   1.0078250   1.0078250  15.9949146
 NucSpn=           1           1           1           1           1           1           1           1           1           0
 AtZEff=   0.0000000   0.0000000   0.0000000   0.0000000   0.0000000   0.0000000   0.0000000   0.0000000   0.0000000   0.0000000
 NQMom=    0.0000000   0.0000000   0.0000000   0.0000000   0.0000000   0.0000000   0.0000000   0.0000000   0.0000000   0.0000000
 NMagM=    2.7928460   2.7928460   2.7928460   2.7928460   2.7928460   2.7928460   2.7928460   2.7928460   2.7928460   0.0000000

  Atom        91          92          93          94          95          96          97          98          99         100
 IAtWgt=          12          16          12          16          16          12          12           1           1           1
 AtmWgt=  12.0000000  15.9949146  12.0000000  15.9949146  15.9949146  12.0000000  12.0000000   1.0078250   1.0078250   1.0078250
 NucSpn=           0           0           0           0           0           0           0           1           1           1
 AtZEff=   0.0000000   0.0000000   0.0000000   0.0000000   0.0000000   0.0000000   0.0000000   0.0000000   0.0000000   0.0000000
 NQMom=    0.0000000   0.0000000   0.0000000   0.0000000   0.0000000   0.0000000   0.0000000   0.0000000   0.0000000   0.0000000
 NMagM=    0.0000000   0.0000000   0.0000000   0.0000000   0.0000000   0.0000000   0.0000000   2.7928460   2.7928460   2.7928460

  Atom       101         102         103         104         105         106         107         108         109         110
 IAtWgt=           1           1           1           1           1           1           1           1           1           1
 AtmWgt=   1.0078250   1.0078250   1.0078250   1.0078250   1.0078250   1.0078250   1.0078250   1.0078250   1.0078250   1.0078250
 NucSpn=           1           1           1           1           1           1           1           1           1           1
 AtZEff=   0.0000000   0.0000000   0.0000000   0.0000000   0.0000000   0.0000000   0.0000000   0.0000000   0.0000000   0.0000000
 NQMom=    0.0000000   0.0000000   0.0000000   0.0000000   0.0000000   0.0000000   0.0000000   0.0000000   0.0000000   0.0000000
 NMagM=    2.7928460   2.7928460   2.7928460   2.7928460   2.7928460   2.7928460   2.7928460   2.7928460   2.7928460   2.7928460

  Atom       111         112         113         114         115         116         117         118         119         120
 IAtWgt=           1           1           1           1           1           1           1           1           1           1
 AtmWgt=   1.0078250   1.0078250   1.0078250   1.0078250   1.0078250   1.0078250   1.0078250   1.0078250   1.0078250   1.0078250
 NucSpn=           1           1           1           1           1           1           1           1           1           1
 AtZEff=   0.0000000   0.0000000   0.0000000   0.0000000   0.0000000   0.0000000   0.0000000   0.0000000   0.0000000   0.0000000
 NQMom=    0.0000000   0.0000000   0.0000000   0.0000000   0.0000000   0.0000000   0.0000000   0.0000000   0.0000000   0.0000000
 NMagM=    2.7928460   2.7928460   2.7928460   2.7928460   2.7928460   2.7928460   2.7928460   2.7928460   2.7928460   2.7928460

  Atom       121         122         123         124         125         126         127         128         129         130
 IAtWgt=           1           1           1           1           1           1          16           1           1          16
 AtmWgt=   1.0078250   1.0078250   1.0078250   1.0078250   1.0078250   1.0078250  15.9949146   1.0078250   1.0078250  15.9949146
 NucSpn=           1           1           1           1           1           1           0           1           1           0
 AtZEff=   0.0000000   0.0000000   0.0000000   0.0000000   0.0000000   0.0000000   0.0000000   0.0000000   0.0000000   0.0000000
 NQMom=    0.0000000   0.0000000   0.0000000   0.0000000   0.0000000   0.0000000   0.0000000   0.0000000   0.0000000   0.0000000
 NMagM=    2.7928460   2.7928460   2.7928460   2.7928460   2.7928460   2.7928460   0.0000000   2.7928460   2.7928460   0.0000000

  Atom       131         132         133         134         135         136         137         138         139         140
 IAtWgt=          16           1           1           1          16           1          16           1           1          16
 AtmWgt=  15.9949146   1.0078250   1.0078250   1.0078250  15.9949146   1.0078250  15.9949146   1.0078250   1.0078250  15.9949146
 NucSpn=           0           1           1           1           0           1           0           1           1           0
 AtZEff=   0.0000000   0.0000000   0.0000000   0.0000000   0.0000000   0.0000000   0.0000000   0.0000000   0.0000000   0.0000000
 NQMom=    0.0000000   0.0000000   0.0000000   0.0000000   0.0000000   0.0000000   0.0000000   0.0000000   0.0000000   0.0000000
 NMagM=    0.0000000   2.7928460   2.7928460   2.7928460   0.0000000   2.7928460   0.0000000   2.7928460   2.7928460   0.0000000

  Atom       141         142         143         144         145         146         147         148         149         150
 IAtWgt=          16           1           1           1          16          12          12          12          12           1
 AtmWgt=  15.9949146   1.0078250   1.0078250   1.0078250  15.9949146  12.0000000  12.0000000  12.0000000  12.0000000   1.0078250
 NucSpn=           0           1           1           1           0           0           0           0           0           1
 AtZEff=   0.0000000   0.0000000   0.0000000   0.0000000   0.0000000   0.0000000   0.0000000   0.0000000   0.0000000   0.0000000
 NQMom=    0.0000000   0.0000000   0.0000000   0.0000000   0.0000000   0.0000000   0.0000000   0.0000000   0.0000000   0.0000000
 NMagM=    0.0000000   2.7928460   2.7928460   2.7928460   0.0000000   0.0000000   0.0000000   0.0000000   0.0000000   2.7928460

  Atom       151         152         153         154         155         156         157         158         159         160
 IAtWgt=           1           1           1           1           1           1           1           1           1           1
 AtmWgt=   1.0078250   1.0078250   1.0078250   1.0078250   1.0078250   1.0078250   1.0078250   1.0078250   1.0078250   1.0078250
 NucSpn=           1           1           1           1           1           1           1           1           1           1
 AtZEff=   0.0000000   0.0000000   0.0000000   0.0000000   0.0000000   0.0000000   0.0000000   0.0000000   0.0000000   0.0000000
 NQMom=    0.0000000   0.0000000   0.0000000   0.0000000   0.0000000   0.0000000   0.0000000   0.0000000   0.0000000   0.0000000
 NMagM=    2.7928460   2.7928460   2.7928460   2.7928460   2.7928460   2.7928460   2.7928460   2.7928460   2.7928460   2.7928460

  Atom       161         162         163         164         165         166         167         168         169         170
 IAtWgt=           1          12           1           1           1          12           1           1           1          12
 AtmWgt=   1.0078250  12.0000000   1.0078250   1.0078250   1.0078250  12.0000000   1.0078250   1.0078250   1.0078250  12.0000000
 NucSpn=           1           0           1           1           1           0           1           1           1           0
 AtZEff=   0.0000000   0.0000000   0.0000000   0.0000000   0.0000000   0.0000000   0.0000000   0.0000000   0.0000000   0.0000000
 NQMom=    0.0000000   0.0000000   0.0000000   0.0000000   0.0000000   0.0000000   0.0000000   0.0000000   0.0000000   0.0000000
 NMagM=    2.7928460   0.0000000   2.7928460   2.7928460   2.7928460   0.0000000   2.7928460   2.7928460   2.7928460   0.0000000

  Atom       171         172         173         174         175         176         177
 IAtWgt=           1           1           1          12           1           1           1
 AtmWgt=   1.0078250   1.0078250   1.0078250  12.0000000   1.0078250   1.0078250   1.0078250
 NucSpn=           1           1           1           0           1           1           1
 AtZEff=   0.0000000   0.0000000   0.0000000   0.0000000   0.0000000   0.0000000   0.0000000
 NQMom=    0.0000000   0.0000000   0.0000000   0.0000000   0.0000000   0.0000000   0.0000000
 NMagM=    2.7928460   2.7928460   2.7928460   0.0000000   2.7928460   2.7928460   2.7928460
 Leave Link  101 at Tue Jan 27 19:37:25 2015, MaxMem= 2147483648 cpu:       3.0
 (Enter /opt/g09/l202.exe)
 Stoichiometry    C85H76N4O12(1+,2)
 Framework group  C1[X(C85H76N4O12)]
 Deg. of freedom   525
 Full point group                 C1      NOp   1
 Largest Abelian subgroup         C1      NOp   1
 Largest concise Abelian subgroup C1      NOp   1
                         Standard orientation:                         
 ---------------------------------------------------------------------
 Center     Atomic      Atomic             Coordinates (Angstroms)
 Number     Number       Type             X           Y           Z
 ---------------------------------------------------------------------
      1          6           0       -0.016548    0.049694    0.162459
      2          6           0        0.763366    0.936178   -0.816087
      3          6           0        0.445383    0.604460   -2.146763
      4          6           0       -0.548835   -0.471886   -2.139903
      5          6           0       -0.819357   -0.829311   -0.805862
      6          6           0        0.878509   -0.734641    1.129269
      7          6           0        0.538061   -0.447617    2.467500
      8          6           0       -0.590425    0.486342    2.475034
      9          6           0       -0.909986    0.820567    1.142579
     10          6           0        1.917219   -1.595348    0.821623
     11          6           0        2.648225   -2.193311    1.865410
     12          6           0        2.319483   -1.897983    3.199383
     13          6           0        1.272279   -1.028313    3.503705
     14          6           0       -1.210528   -1.121757   -3.185625
     15          6           0       -2.128820   -2.125998   -2.889825
     16          6           0       -2.401761   -2.481377   -1.557814
     17          6           0       -1.737924   -1.826453   -0.507637
     18          6           0        1.698273    1.922916   -0.532670
     19          6           0        2.327693    2.593717   -1.593894
     20          6           0        2.004453    2.266380   -2.921452
     21          6           0        1.071296    1.271852   -3.203332
     22          6           0       -1.343133    1.030115    3.517239
     23          6           0       -2.382270    1.914706    3.225693
     24          6           0       -2.681158    2.267300    1.898548
     25          6           0       -1.936125    1.699981    0.847862
     26          7           0        3.713097   -3.081818    1.569892
     27          7           0       -3.346594   -3.510560   -1.264578
     28          7           0        3.292787    3.610721   -1.319775
     29          7           0       -3.727821    3.186455    1.616909
     30          6           0       -4.980212    3.059870    2.272203
     31          6           0        2.858027    4.767033   -0.615183
     32          6           0       -3.549346    4.169658    0.605569
     33          6           0        4.627002    3.493952   -1.757592
     34          6           0        3.556788   -4.072974    0.568110
     35          6           0        4.943546   -2.961305    2.265936
     36          6           0       -4.681874   -3.435178   -1.711286
     37          6           0       -2.879291   -4.665704   -0.578776
     38          6           0       -5.486323   -4.580006   -1.802117
     39          6           0       -6.818616   -4.502693   -2.217052
     40          6           0       -7.377134   -3.271538   -2.568075
     41          6           0       -6.581579   -2.121701   -2.485369
     42          6           0       -5.262856   -2.197607   -2.057843
     43          6           0        4.605280   -4.413537   -0.291836
     44          6           0        4.446100   -5.399605   -1.271560
     45          6           0        3.217080   -6.048699   -1.414426
     46          6           0        2.164279   -5.718329   -0.550533
     47          6           0        2.333517   -4.753654    0.429348
     48          6           0        5.420655   -4.017681    3.072004
     49          6           0        6.646814   -3.908066    3.740155
     50          6           0        7.381634   -2.729252    3.625742
     51          6           0        6.928424   -1.662686    2.852382
     52          6           0        5.714627   -1.781767    2.161435
     53          6           0       -3.196074   -4.877689    0.778670
     54          6           0       -2.740592   -6.022228    1.446700
     55          6           0       -1.959169   -6.946068    0.755279
     56          6           0       -1.624339   -6.761975   -0.584641
     57          6           0       -2.089966   -5.621046   -1.254649
     58          6           0        2.076613    5.743068   -1.270550
     59          6           0        1.640975    6.885164   -0.582224
     60          6           0        1.998725    7.050296    0.754258
     61          6           0        2.773687    6.106083    1.425284
     62          6           0        3.197938    4.960076    0.739642
     63          6           0        5.163728    2.255534   -2.143522
     64          6           0        6.487602    2.139685   -2.577499
     65          6           0        7.316901    3.262839   -2.619527
     66          6           0        6.794508    4.501039   -2.225801
     67          6           0        5.475392    4.618150   -1.809641
     68          6           0       -2.316454    4.834388    0.479325
     69          6           0       -2.120915    5.789752   -0.505555
     70          6           0       -3.156748    6.122906   -1.387578
     71          6           0       -4.393861    5.484775   -1.260731
     72          6           0       -4.579405    4.509959   -0.275952
     73          6           0       -5.703827    1.839738    2.207594
     74          6           0       -6.947196    1.718397    2.836612
     75          6           0       -7.500273    2.814800    3.502299
     76          6           0       -6.816842    4.023700    3.563524
     77          6           0       -5.559609    4.142282    2.963297
     78          1           0       -2.185936    1.944354   -0.179427
     79          1           0        1.970174    2.168847    0.489218
     80          1           0        2.492621    2.809606   -3.723764
     81          1           0        0.829579    1.029714   -4.235316
     82          1           0       -1.007380   -0.859231   -4.220940
     83          1           0       -2.642110   -2.656153   -3.685235
     84          1           0       -1.124264    0.779020    4.552439
     85          1           0       -2.971795    2.341541    4.031448
     86          1           0        1.029700   -0.819285    4.543021
     87          1           0        2.887945   -2.368136    3.995964
     88          1           0       -1.970432   -2.093440    0.518695
     89          1           0        2.187494   -1.802948   -0.208781
     90          8           0       -2.853389    7.074797   -2.330895
     91          6           0       -3.868498    7.442630   -3.247993
     92          8           0        8.630751    3.261529   -3.022664
     93          6           0        9.188953    2.031526   -3.440936
     94          8           0       -8.669403   -3.082416   -2.994789
     95          8           0        2.936650   -7.011228   -2.355209
     96          6           0        3.966515   -7.369757   -3.258163
     97          6           0       -9.498097   -4.222599   -3.108693
     98          1           0       -7.019972   -1.165298   -2.754914
     99          1           0       -4.672906   -1.289910   -1.993392
    100          1           0        5.557942   -3.900885   -0.201363
    101          1           0        5.281910   -5.631539   -1.922472
    102          1           0       -7.400860   -5.416301   -2.269187
    103          1           0       -5.071767   -5.549064   -1.545916
    104          1           0        1.217982   -6.240679   -0.646302
    105          1           0        1.511985   -4.519495    1.097860
    106          1           0       -5.539760    4.010733   -0.195064
    107          1           0       -5.216862    5.719738   -1.926412
    108          1           0       -1.166174    6.297778   -0.593066
    109          1           0       -1.502439    4.590248    1.153971
    110          1           0        6.852622    1.161810   -2.872112
    111          1           0        4.543279    1.366764   -2.112236
    112          1           0        7.440819    5.373085   -2.263655
    113          1           0        5.093856    5.592148   -1.522784
    114          1           0        8.655678    1.614950   -4.307181
    115          1           0        9.187413    1.285982   -2.632881
    116          1           0       10.221018    2.247923   -3.725643
    117          1           0        4.839223   -7.784108   -2.734592
    118          1           0        4.289934   -6.513605   -3.866183
    119          1           0        3.543978   -8.135783   -3.911986
    120          1           0      -10.465491   -3.860255   -3.463415
    121          1           0       -9.634981   -4.726219   -2.141073
    122          1           0       -9.097571   -4.947585   -3.831404
    123          1           0       -4.742339    7.867522   -2.735545
    124          1           0       -4.192946    6.588549   -3.858121
    125          1           0       -3.428959    8.202405   -3.897736
    126          1           0        3.029577    6.259927    2.466379
    127          8           0        3.940164    3.965352    1.304644
    128          1           0        1.665612    7.937399    1.286163
    129          1           0        1.047373    7.641880   -1.080859
    130          8           0        1.806603    5.493418   -2.578649
    131          8           0       -5.111556    0.844615    1.494399
    132          1           0       -7.499768    0.788018    2.782279
    133          1           0       -8.474088    2.716724    3.974123
    134          1           0       -7.228556    4.889899    4.071128
    135          8           0       -4.946993    5.373466    3.007140
    136          1           0       -2.976711   -6.190006    2.490286
    137          8           0       -3.947390   -3.902528    1.365473
    138          1           0       -1.602039   -7.831630    1.273982
    139          1           0       -1.025109   -7.503158   -1.099556
    140          8           0       -1.843520   -5.353081   -2.564040
    141          8           0        5.196667   -0.814272    1.358874
    142          1           0        7.524241   -0.761755    2.771386
    143          1           0        8.328570   -2.640301    4.151418
    144          1           0        7.017130   -4.718328    4.356471
    145          8           0        4.607281   -5.108340    3.143420
    146          6           0       -1.024314   -6.250245   -3.302507
    147          6           0        5.865691    0.436495    1.280219
    148          6           0        1.005851    6.421088   -3.300245
    149          6           0       -5.752908   -0.420719    1.423491
    150          1           0       -0.967048   -5.832062   -4.308976
    151          1           0       -1.470430   -7.252292   -3.352823
    152          1           0       -0.013605   -6.321096   -2.882693
    153          1           0       -6.715378   -0.356044    0.899839
    154          1           0       -5.915860   -0.839839    2.425687
    155          1           0       -5.081386   -1.071227    0.862001
    156          1           0        1.477714    7.411673   -3.340052
    157          1           0       -0.000534    6.511888   -2.874065
    158          1           0        0.932648    6.017852   -4.311799
    159          1           0        5.243724    1.075494    0.652450
    160          1           0        6.857964    0.335549    0.821431
    161          1           0        5.974057    0.891679    2.273755
    162          6           0        5.047023   -6.232785    3.885792
    163          1           0        4.259303   -6.981361    3.783514
    164          1           0        5.181551   -5.990247    4.948567
    165          1           0        5.986524   -6.637971    3.487581
    166          6           0       -4.311254   -4.063617    2.728057
    167          1           0       -4.898439   -3.180279    2.984098
    168          1           0       -3.428939   -4.112237    3.379010
    169          1           0       -4.922771   -4.962837    2.877470
    170          6           0        4.338247    4.109920    2.659371
    171          1           0        4.913722    3.213470    2.895989
    172          1           0        4.970483    4.996013    2.800452
    173          1           0        3.472389    4.170899    3.331148
    174          6           0       -3.789992    5.468945    3.836115
    175          1           0       -4.029242    5.195868    4.873230
    176          1           0       -3.478370    6.515349    3.800118
    177          1           0       -2.973276    4.836704    3.472778
 ---------------------------------------------------------------------
 Rotational constants (GHZ):      0.0168010      0.0152467      0.0102352
 Leave Link  202 at Tue Jan 27 19:37:25 2015, MaxMem= 2147483648 cpu:       1.1
 (Enter /opt/g09/l301.exe)
 Standard basis: CC-pVDZ (5D, 7F)
 Ernie: Thresh=  0.10000D-02 Tol=  0.10000D-05 Strict=F.
 Ernie:  202 primitive shells out of 2602 were deleted.
 There are  1794 symmetry adapted basis functions of A   symmetry.
 Integral buffers will be    131072 words long.
 Raffenetti 2 integral format.
 Two-electron integral symmetry is turned on.
  1794 basis functions,  3865 primitive gaussians,  1895 cartesian basis functions
   355 alpha electrons      354 beta electrons
       nuclear repulsion energy     20107.7388140967 Hartrees.
 IExCor=  402 DFT=T Ex+Corr=B3LYP ExCW=0 ScaHFX=  0.200000
 ScaDFX=  0.800000  0.720000  1.000000  0.810000 ScalE2=  1.000000  1.000000
 IRadAn=      0 IRanWt=     -1 IRanGd=            0 ICorTp=0
 NAtoms=  177 NActive=  177 NUniq=  177 SFac= 7.50D-01 NAtFMM=   80 NAOKFM=T Big=T
 Leave Link  301 at Tue Jan 27 19:37:25 2015, MaxMem= 2147483648 cpu:       1.6
 (Enter /opt/g09/l302.exe)
 NPDir=0 NMtPBC=     1 NCelOv=     1 NCel=       1 NClECP=     1 NCelD=      1
         NCelK=      1 NCelE2=     1 NClLst=     1 CellRange=     0.0.
 One-electron integrals computed using PRISM.
 NBasis=  1794 RedAO= T  NBF=  1794
 NBsUse=  1794 1.00D-06 NBFU=  1794
 Precomputing XC quadrature grid using
 IXCGrd= 2 IRadAn=           0 IRanWt=          -1 IRanGd=           0 AccXCQ= 1.00D-10.
 NRdTot=   11575 NPtTot=     1483054 NUsed=     1566393 NTot=     1566425
 NSgBfM=  1308  1345  1369  1387  1393 NAtAll=   177   177.
 Leave Link  302 at Tue Jan 27 19:37:52 2015, MaxMem= 2147483648 cpu:     638.3
 (Enter /opt/g09/l303.exe)
 DipDrv:  MaxL=1.
 Leave Link  303 at Tue Jan 27 19:37:54 2015, MaxMem= 2147483648 cpu:      44.3
 (Enter /opt/g09/l401.exe)
 Harris functional with IExCor=  402 diagonalized for initial guess.
 ExpMin= 1.22D-01 ExpMax= 1.17D+04 ExpMxC= 4.01D+02 IAcc=1 IRadAn=         1 AccDes= 0.00D+00
 HarFok:  IExCor=  402 AccDes= 0.00D+00 IRadAn=         1 IDoV= 1
 ScaDFX=  1.000000  1.000000  1.000000  1.000000
 FoFCou: FMM=F IPFlag=           0 FMFlag=      100000 FMFlg1=        2001
         NFxFlg=           0 DoJE=T BraDBF=F KetDBF=T FulRan=T
         Omega=  0.000000  0.000000  1.000000  0.000000  0.000000 ICntrl=     500 IOpCl=  0
         NMat0=    1 NMatS0=    1 NMatT0=    0 NMatD0=    1 NMtDS0=    0 NMtDT0=    0
         I1Cent=           4 NGrid=           0.
 Petite list used in FoFCou.
 Harris En= -4406.48954042128    
 Initial guess orbital symmetries:
 Alpha Orbitals:
       Occupied  (A) (A) (A) (A) (A) (A) (A) (A) (A) (A) (A) (A)
                 (A) (A) (A) (A) (A) (A) (A) (A) (A) (A) (A) (A)
                 (A) (A) (A) (A) (A) (A) (A) (A) (A) (A) (A) (A)
                 (A) (A) (A) (A) (A) (A) (A) (A) (A) (A) (A) (A)
                 (A) (A) (A) (A) (A) (A) (A) (A) (A) (A) (A) (A)
                 (A) (A) (A) (A) (A) (A) (A) (A) (A) (A) (A) (A)
                 (A) (A) (A) (A) (A) (A) (A) (A) (A) (A) (A) (A)
                 (A) (A) (A) (A) (A) (A) (A) (A) (A) (A) (A) (A)
                 (A) (A) (A) (A) (A) (A) (A) (A) (A) (A) (A) (A)
                 (A) (A) (A) (A) (A) (A) (A) (A) (A) (A) (A) (A)
                 (A) (A) (A) (A) (A) (A) (A) (A) (A) (A) (A) (A)
                 (A) (A) (A) (A) (A) (A) (A) (A) (A) (A) (A) (A)
                 (A) (A) (A) (A) (A) (A) (A) (A) (A) (A) (A) (A)
                 (A) (A) (A) (A) (A) (A) (A) (A) (A) (A) (A) (A)
                 (A) (A) (A) (A) (A) (A) (A) (A) (A) (A) (A) (A)
                 (A) (A) (A) (A) (A) (A) (A) (A) (A) (A) (A) (A)
                 (A) (A) (A) (A) (A) (A) (A) (A) (A) (A) (A) (A)
                 (A) (A) (A) (A) (A) (A) (A) (A) (A) (A) (A) (A)
                 (A) (A) (A) (A) (A) (A) (A) (A) (A) (A) (A) (A)
                 (A) (A) (A) (A) (A) (A) (A) (A) (A) (A) (A) (A)
                 (A) (A) (A) (A) (A) (A) (A) (A) (A) (A) (A) (A)
                 (A) (A) (A) (A) (A) (A) (A) (A) (A) (A) (A) (A)
                 (A) (A) (A) (A) (A) (A) (A) (A) (A) (A) (A) (A)
                 (A) (A) (A) (A) (A) (A) (A) (A) (A) (A) (A) (A)
                 (A) (A) (A) (A) (A) (A) (A) (A) (A) (A) (A) (A)
                 (A) (A) (A) (A) (A) (A) (A) (A) (A) (A) (A) (A)
                 (A) (A) (A) (A) (A) (A) (A) (A) (A) (A) (A) (A)
                 (A) (A) (A) (A) (A) (A) (A) (A) (A) (A) (A) (A)
                 (A) (A) (A) (A) (A) (A) (A) (A) (A) (A) (A) (A)
                 (A) (A) (A) (A) (A) (A) (A)
       Virtual   (A) (A) (A) (A) (A) (A) (A) (A) (A) (A) (A) (A)
                 (A) (A) (A) (A) (A) (A) (A) (A) (A) (A) (A) (A)
                 (A) (A) (A) (A) (A) (A) (A) (A) (A) (A) (A) (A)
                 (A) (A) (A) (A) (A) (A) (A) (A) (A) (A) (A) (A)
                 (A) (A) (A) (A) (A) (A) (A) (A) (A) (A) (A) (A)
                 (A) (A) (A) (A) (A) (A) (A) (A) (A) (A) (A) (A)
                 (A) (A) (A) (A) (A) (A) (A) (A) (A) (A) (A) (A)
                 (A) (A) (A) (A) (A) (A) (A) (A) (A) (A) (A) (A)
                 (A) (A) (A) (A) (A) (A) (A) (A) (A) (A) (A) (A)
                 (A) (A) (A) (A) (A) (A) (A) (A) (A) (A) (A) (A)
                 (A) (A) (A) (A) (A) (A) (A) (A) (A) (A) (A) (A)
                 (A) (A) (A) (A) (A) (A) (A) (A) (A) (A) (A) (A)
                 (A) (A) (A) (A) (A) (A) (A) (A) (A) (A) (A) (A)
                 (A) (A) (A) (A) (A) (A) (A) (A) (A) (A) (A) (A)
                 (A) (A) (A) (A) (A) (A) (A) (A) (A) (A) (A) (A)
                 (A) (A) (A) (A) (A) (A) (A) (A) (A) (A) (A) (A)
                 (A) (A) (A) (A) (A) (A) (A) (A) (A) (A) (A) (A)
                 (A) (A) (A) (A) (A) (A) (A) (A) (A) (A) (A) (A)
                 (A) (A) (A) (A) (A) (A) (A) (A) (A) (A) (A) (A)
                 (A) (A) (A) (A) (A) (A) (A) (A) (A) (A) (A) (A)
                 (A) (A) (A) (A) (A) (A) (A) (A) (A) (A) (A) (A)
                 (A) (A) (A) (A) (A) (A) (A) (A) (A) (A) (A) (A)
                 (A) (A) (A) (A) (A) (A) (A) (A) (A) (A) (A) (A)
                 (A) (A) (A) (A) (A) (A) (A) (A) (A) (A) (A) (A)
                 (A) (A) (A) (A) (A) (A) (A) (A) (A) (A) (A) (A)
                 (A) (A) (A) (A) (A) (A) (A) (A) (A) (A) (A) (A)
                 (A) (A) (A) (A) (A) (A) (A) (A) (A) (A) (A) (A)
                 (A) (A) (A) (A) (A) (A) (A) (A) (A) (A) (A) (A)
                 (A) (A) (A) (A) (A) (A) (A) (A) (A) (A) (A) (A)
                 (A) (A) (A) (A) (A) (A) (A) (A) (A) (A) (A) (A)
                 (A) (A) (A) (A) (A) (A) (A) (A) (A) (A) (A) (A)
                 (A) (A) (A) (A) (A) (A) (A) (A) (A) (A) (A) (A)
                 (A) (A) (A) (A) (A) (A) (A) (A) (A) (A) (A) (A)
                 (A) (A) (A) (A) (A) (A) (A) (A) (A) (A) (A) (A)
                 (A) (A) (A) (A) (A) (A) (A) (A) (A) (A) (A) (A)
                 (A) (A) (A) (A) (A) (A) (A) (A) (A) (A) (A) (A)
                 (A) (A) (A) (A) (A) (A) (A) (A) (A) (A) (A) (A)
                 (A) (A) (A) (A) (A) (A) (A) (A) (A) (A) (A) (A)
                 (A) (A) (A) (A) (A) (A) (A) (A) (A) (A) (A) (A)
                 (A) (A) (A) (A) (A) (A) (A) (A) (A) (A) (A) (A)
                 (A) (A) (A) (A) (A) (A) (A) (A) (A) (A) (A) (A)
                 (A) (A) (A) (A) (A) (A) (A) (A) (A) (A) (A) (A)
                 (A) (A) (A) (A) (A) (A) (A) (A) (A) (A) (A) (A)
                 (A) (A) (A) (A) (A) (A) (A) (A) (A) (A) (A) (A)
                 (A) (A) (A) (A) (A) (A) (A) (A) (A) (A) (A) (A)
                 (A) (A) (A) (A) (A) (A) (A) (A) (A) (A) (A) (A)
                 (A) (A) (A) (A) (A) (A) (A) (A) (A) (A) (A) (A)
                 (A) (A) (A) (A) (A) (A) (A) (A) (A) (A) (A) (A)
                 (A) (A) (A) (A) (A) (A) (A) (A) (A) (A) (A) (A)
                 (A) (A) (A) (A) (A) (A) (A) (A) (A) (A) (A) (A)
                 (A) (A) (A) (A) (A) (A) (A) (A) (A) (A) (A) (A)
                 (A) (A) (A) (A) (A) (A) (A) (A) (A) (A) (A) (A)
                 (A) (A) (A) (A) (A) (A) (A) (A) (A) (A) (A) (A)
                 (A) (A) (A) (A) (A) (A) (A) (A) (A) (A) (A) (A)
                 (A) (A) (A) (A) (A) (A) (A) (A) (A) (A) (A) (A)
                 (A) (A) (A) (A) (A) (A) (A) (A) (A) (A) (A) (A)
                 (A) (A) (A) (A) (A) (A) (A) (A) (A) (A) (A) (A)
                 (A) (A) (A) (A) (A) (A) (A) (A) (A) (A) (A) (A)
                 (A) (A) (A) (A) (A) (A) (A) (A) (A) (A) (A) (A)
                 (A) (A) (A) (A) (A) (A) (A) (A) (A) (A) (A) (A)
                 (A) (A) (A) (A) (A) (A) (A) (A) (A) (A) (A) (A)
                 (A) (A) (A) (A) (A) (A) (A) (A) (A) (A) (A) (A)
                 (A) (A) (A) (A) (A) (A) (A) (A) (A) (A) (A) (A)
                 (A) (A) (A) (A) (A) (A) (A) (A) (A) (A) (A) (A)
                 (A) (A) (A) (A) (A) (A) (A) (A) (A) (A) (A) (A)
                 (A) (A) (A) (A) (A) (A) (A) (A) (A) (A) (A) (A)
                 (A) (A) (A) (A) (A) (A) (A) (A) (A) (A) (A) (A)
                 (A) (A) (A) (A) (A) (A) (A) (A) (A) (A) (A) (A)
                 (A) (A) (A) (A) (A) (A) (A) (A) (A) (A) (A) (A)
                 (A) (A) (A) (A) (A) (A) (A) (A) (A) (A) (A) (A)
                 (A) (A) (A) (A) (A) (A) (A) (A) (A) (A) (A) (A)
                 (A) (A) (A) (A) (A) (A) (A) (A) (A) (A) (A) (A)
                 (A) (A) (A) (A) (A) (A) (A) (A) (A) (A) (A) (A)
                 (A) (A) (A) (A) (A) (A) (A) (A) (A) (A) (A) (A)
                 (A) (A) (A) (A) (A) (A) (A) (A) (A) (A) (A) (A)
                 (A) (A) (A) (A) (A) (A) (A) (A) (A) (A) (A) (A)
                 (A) (A) (A) (A) (A) (A) (A) (A) (A) (A) (A) (A)
                 (A) (A) (A) (A) (A) (A) (A) (A) (A) (A) (A) (A)
                 (A) (A) (A) (A) (A) (A) (A) (A) (A) (A) (A) (A)
                 (A) (A) (A) (A) (A) (A) (A) (A) (A) (A) (A) (A)
                 (A) (A) (A) (A) (A) (A) (A) (A) (A) (A) (A) (A)
                 (A) (A) (A) (A) (A) (A) (A) (A) (A) (A) (A) (A)
                 (A) (A) (A) (A) (A) (A) (A) (A) (A) (A) (A) (A)
                 (A) (A) (A) (A) (A) (A) (A) (A) (A) (A) (A) (A)
                 (A) (A) (A) (A) (A) (A) (A) (A) (A) (A) (A) (A)
                 (A) (A) (A) (A) (A) (A) (A) (A) (A) (A) (A) (A)
                 (A) (A) (A) (A) (A) (A) (A) (A) (A) (A) (A) (A)
                 (A) (A) (A) (A) (A) (A) (A) (A) (A) (A) (A) (A)
                 (A) (A) (A) (A) (A) (A) (A) (A) (A) (A) (A) (A)
                 (A) (A) (A) (A) (A) (A) (A) (A) (A) (A) (A) (A)
                 (A) (A) (A) (A) (A) (A) (A) (A) (A) (A) (A) (A)
                 (A) (A) (A) (A) (A) (A) (A) (A) (A) (A) (A) (A)
                 (A) (A) (A) (A) (A) (A) (A) (A) (A) (A) (A) (A)
                 (A) (A) (A) (A) (A) (A) (A) (A) (A) (A) (A) (A)
                 (A) (A) (A) (A) (A) (A) (A) (A) (A) (A) (A) (A)
                 (A) (A) (A) (A) (A) (A) (A) (A) (A) (A) (A) (A)
                 (A) (A) (A) (A) (A) (A) (A) (A) (A) (A) (A) (A)
                 (A) (A) (A) (A) (A) (A) (A) (A) (A) (A) (A) (A)
                 (A) (A) (A) (A) (A) (A) (A) (A) (A) (A) (A) (A)
                 (A) (A) (A) (A) (A) (A) (A) (A) (A) (A) (A) (A)
                 (A) (A) (A) (A) (A) (A) (A) (A) (A) (A) (A) (A)
                 (A) (A) (A) (A) (A) (A) (A) (A) (A) (A) (A) (A)
                 (A) (A) (A) (A) (A) (A) (A) (A) (A) (A) (A) (A)
                 (A) (A) (A) (A) (A) (A) (A) (A) (A) (A) (A) (A)
                 (A) (A) (A) (A) (A) (A) (A) (A) (A) (A) (A) (A)
                 (A) (A) (A) (A) (A) (A) (A) (A) (A) (A) (A) (A)
                 (A) (A) (A) (A) (A) (A) (A) (A) (A) (A) (A) (A)
                 (A) (A) (A) (A) (A) (A) (A) (A) (A) (A) (A) (A)
                 (A) (A) (A) (A) (A) (A) (A) (A) (A) (A) (A) (A)
                 (A) (A) (A) (A) (A) (A) (A) (A) (A) (A) (A) (A)
                 (A) (A) (A) (A) (A) (A) (A) (A) (A) (A) (A) (A)
                 (A) (A) (A) (A) (A) (A) (A) (A) (A) (A) (A) (A)
                 (A) (A) (A) (A) (A) (A) (A) (A) (A) (A) (A) (A)
                 (A) (A) (A) (A) (A) (A) (A) (A) (A) (A) (A) (A)
                 (A) (A) (A) (A) (A) (A) (A) (A) (A) (A) (A) (A)
                 (A) (A) (A) (A) (A) (A) (A) (A) (A) (A) (A) (A)
                 (A) (A) (A) (A) (A) (A) (A) (A) (A) (A) (A) (A)
                 (A) (A) (A) (A) (A) (A) (A) (A) (A) (A) (A) (A)
                 (A) (A) (A) (A) (A) (A) (A) (A) (A) (A) (A) (A)
                 (A) (A) (A) (A) (A) (A) (A) (A) (A) (A) (A)
 Beta  Orbitals:
       Occupied  (A) (A) (A) (A) (A) (A) (A) (A) (A) (A) (A) (A)
                 (A) (A) (A) (A) (A) (A) (A) (A) (A) (A) (A) (A)
                 (A) (A) (A) (A) (A) (A) (A) (A) (A) (A) (A) (A)
                 (A) (A) (A) (A) (A) (A) (A) (A) (A) (A) (A) (A)
                 (A) (A) (A) (A) (A) (A) (A) (A) (A) (A) (A) (A)
                 (A) (A) (A) (A) (A) (A) (A) (A) (A) (A) (A) (A)
                 (A) (A) (A) (A) (A) (A) (A) (A) (A) (A) (A) (A)
                 (A) (A) (A) (A) (A) (A) (A) (A) (A) (A) (A) (A)
                 (A) (A) (A) (A) (A) (A) (A) (A) (A) (A) (A) (A)
                 (A) (A) (A) (A) (A) (A) (A) (A) (A) (A) (A) (A)
                 (A) (A) (A) (A) (A) (A) (A) (A) (A) (A) (A) (A)
                 (A) (A) (A) (A) (A) (A) (A) (A) (A) (A) (A) (A)
                 (A) (A) (A) (A) (A) (A) (A) (A) (A) (A) (A) (A)
                 (A) (A) (A) (A) (A) (A) (A) (A) (A) (A) (A) (A)
                 (A) (A) (A) (A) (A) (A) (A) (A) (A) (A) (A) (A)
                 (A) (A) (A) (A) (A) (A) (A) (A) (A) (A) (A) (A)
                 (A) (A) (A) (A) (A) (A) (A) (A) (A) (A) (A) (A)
                 (A) (A) (A) (A) (A) (A) (A) (A) (A) (A) (A) (A)
                 (A) (A) (A) (A) (A) (A) (A) (A) (A) (A) (A) (A)
                 (A) (A) (A) (A) (A) (A) (A) (A) (A) (A) (A) (A)
                 (A) (A) (A) (A) (A) (A) (A) (A) (A) (A) (A) (A)
                 (A) (A) (A) (A) (A) (A) (A) (A) (A) (A) (A) (A)
                 (A) (A) (A) (A) (A) (A) (A) (A) (A) (A) (A) (A)
                 (A) (A) (A) (A) (A) (A) (A) (A) (A) (A) (A) (A)
                 (A) (A) (A) (A) (A) (A) (A) (A) (A) (A) (A) (A)
                 (A) (A) (A) (A) (A) (A) (A) (A) (A) (A) (A) (A)
                 (A) (A) (A) (A) (A) (A) (A) (A) (A) (A) (A) (A)
                 (A) (A) (A) (A) (A) (A) (A) (A) (A) (A) (A) (A)
                 (A) (A) (A) (A) (A) (A) (A) (A) (A) (A) (A) (A)
                 (A) (A) (A) (A) (A) (A)
       Virtual   (A) (A) (A) (A) (A) (A) (A) (A) (A) (A) (A) (A)
                 (A) (A) (A) (A) (A) (A) (A) (A) (A) (A) (A) (A)
                 (A) (A) (A) (A) (A) (A) (A) (A) (A) (A) (A) (A)
                 (A) (A) (A) (A) (A) (A) (A) (A) (A) (A) (A) (A)
                 (A) (A) (A) (A) (A) (A) (A) (A) (A) (A) (A) (A)
                 (A) (A) (A) (A) (A) (A) (A) (A) (A) (A) (A) (A)
                 (A) (A) (A) (A) (A) (A) (A) (A) (A) (A) (A) (A)
                 (A) (A) (A) (A) (A) (A) (A) (A) (A) (A) (A) (A)
                 (A) (A) (A) (A) (A) (A) (A) (A) (A) (A) (A) (A)
                 (A) (A) (A) (A) (A) (A) (A) (A) (A) (A) (A) (A)
                 (A) (A) (A) (A) (A) (A) (A) (A) (A) (A) (A) (A)
                 (A) (A) (A) (A) (A) (A) (A) (A) (A) (A) (A) (A)
                 (A) (A) (A) (A) (A) (A) (A) (A) (A) (A) (A) (A)
                 (A) (A) (A) (A) (A) (A) (A) (A) (A) (A) (A) (A)
                 (A) (A) (A) (A) (A) (A) (A) (A) (A) (A) (A) (A)
                 (A) (A) (A) (A) (A) (A) (A) (A) (A) (A) (A) (A)
                 (A) (A) (A) (A) (A) (A) (A) (A) (A) (A) (A) (A)
                 (A) (A) (A) (A) (A) (A) (A) (A) (A) (A) (A) (A)
                 (A) (A) (A) (A) (A) (A) (A) (A) (A) (A) (A) (A)
                 (A) (A) (A) (A) (A) (A) (A) (A) (A) (A) (A) (A)
                 (A) (A) (A) (A) (A) (A) (A) (A) (A) (A) (A) (A)
                 (A) (A) (A) (A) (A) (A) (A) (A) (A) (A) (A) (A)
                 (A) (A) (A) (A) (A) (A) (A) (A) (A) (A) (A) (A)
                 (A) (A) (A) (A) (A) (A) (A) (A) (A) (A) (A) (A)
                 (A) (A) (A) (A) (A) (A) (A) (A) (A) (A) (A) (A)
                 (A) (A) (A) (A) (A) (A) (A) (A) (A) (A) (A) (A)
                 (A) (A) (A) (A) (A) (A) (A) (A) (A) (A) (A) (A)
                 (A) (A) (A) (A) (A) (A) (A) (A) (A) (A) (A) (A)
                 (A) (A) (A) (A) (A) (A) (A) (A) (A) (A) (A) (A)
                 (A) (A) (A) (A) (A) (A) (A) (A) (A) (A) (A) (A)
                 (A) (A) (A) (A) (A) (A) (A) (A) (A) (A) (A) (A)
                 (A) (A) (A) (A) (A) (A) (A) (A) (A) (A) (A) (A)
                 (A) (A) (A) (A) (A) (A) (A) (A) (A) (A) (A) (A)
                 (A) (A) (A) (A) (A) (A) (A) (A) (A) (A) (A) (A)
                 (A) (A) (A) (A) (A) (A) (A) (A) (A) (A) (A) (A)
                 (A) (A) (A) (A) (A) (A) (A) (A) (A) (A) (A) (A)
                 (A) (A) (A) (A) (A) (A) (A) (A) (A) (A) (A) (A)
                 (A) (A) (A) (A) (A) (A) (A) (A) (A) (A) (A) (A)
                 (A) (A) (A) (A) (A) (A) (A) (A) (A) (A) (A) (A)
                 (A) (A) (A) (A) (A) (A) (A) (A) (A) (A) (A) (A)
                 (A) (A) (A) (A) (A) (A) (A) (A) (A) (A) (A) (A)
                 (A) (A) (A) (A) (A) (A) (A) (A) (A) (A) (A) (A)
                 (A) (A) (A) (A) (A) (A) (A) (A) (A) (A) (A) (A)
                 (A) (A) (A) (A) (A) (A) (A) (A) (A) (A) (A) (A)
                 (A) (A) (A) (A) (A) (A) (A) (A) (A) (A) (A) (A)
                 (A) (A) (A) (A) (A) (A) (A) (A) (A) (A) (A) (A)
                 (A) (A) (A) (A) (A) (A) (A) (A) (A) (A) (A) (A)
                 (A) (A) (A) (A) (A) (A) (A) (A) (A) (A) (A) (A)
                 (A) (A) (A) (A) (A) (A) (A) (A) (A) (A) (A) (A)
                 (A) (A) (A) (A) (A) (A) (A) (A) (A) (A) (A) (A)
                 (A) (A) (A) (A) (A) (A) (A) (A) (A) (A) (A) (A)
                 (A) (A) (A) (A) (A) (A) (A) (A) (A) (A) (A) (A)
                 (A) (A) (A) (A) (A) (A) (A) (A) (A) (A) (A) (A)
                 (A) (A) (A) (A) (A) (A) (A) (A) (A) (A) (A) (A)
                 (A) (A) (A) (A) (A) (A) (A) (A) (A) (A) (A) (A)
                 (A) (A) (A) (A) (A) (A) (A) (A) (A) (A) (A) (A)
                 (A) (A) (A) (A) (A) (A) (A) (A) (A) (A) (A) (A)
                 (A) (A) (A) (A) (A) (A) (A) (A) (A) (A) (A) (A)
                 (A) (A) (A) (A) (A) (A) (A) (A) (A) (A) (A) (A)
                 (A) (A) (A) (A) (A) (A) (A) (A) (A) (A) (A) (A)
                 (A) (A) (A) (A) (A) (A) (A) (A) (A) (A) (A) (A)
                 (A) (A) (A) (A) (A) (A) (A) (A) (A) (A) (A) (A)
                 (A) (A) (A) (A) (A) (A) (A) (A) (A) (A) (A) (A)
                 (A) (A) (A) (A) (A) (A) (A) (A) (A) (A) (A) (A)
                 (A) (A) (A) (A) (A) (A) (A) (A) (A) (A) (A) (A)
                 (A) (A) (A) (A) (A) (A) (A) (A) (A) (A) (A) (A)
                 (A) (A) (A) (A) (A) (A) (A) (A) (A) (A) (A) (A)
                 (A) (A) (A) (A) (A) (A) (A) (A) (A) (A) (A) (A)
                 (A) (A) (A) (A) (A) (A) (A) (A) (A) (A) (A) (A)
                 (A) (A) (A) (A) (A) (A) (A) (A) (A) (A) (A) (A)
                 (A) (A) (A) (A) (A) (A) (A) (A) (A) (A) (A) (A)
                 (A) (A) (A) (A) (A) (A) (A) (A) (A) (A) (A) (A)
                 (A) (A) (A) (A) (A) (A) (A) (A) (A) (A) (A) (A)
                 (A) (A) (A) (A) (A) (A) (A) (A) (A) (A) (A) (A)
                 (A) (A) (A) (A) (A) (A) (A) (A) (A) (A) (A) (A)
                 (A) (A) (A) (A) (A) (A) (A) (A) (A) (A) (A) (A)
                 (A) (A) (A) (A) (A) (A) (A) (A) (A) (A) (A) (A)
                 (A) (A) (A) (A) (A) (A) (A) (A) (A) (A) (A) (A)
                 (A) (A) (A) (A) (A) (A) (A) (A) (A) (A) (A) (A)
                 (A) (A) (A) (A) (A) (A) (A) (A) (A) (A) (A) (A)
                 (A) (A) (A) (A) (A) (A) (A) (A) (A) (A) (A) (A)
                 (A) (A) (A) (A) (A) (A) (A) (A) (A) (A) (A) (A)
                 (A) (A) (A) (A) (A) (A) (A) (A) (A) (A) (A) (A)
                 (A) (A) (A) (A) (A) (A) (A) (A) (A) (A) (A) (A)
                 (A) (A) (A) (A) (A) (A) (A) (A) (A) (A) (A) (A)
                 (A) (A) (A) (A) (A) (A) (A) (A) (A) (A) (A) (A)
                 (A) (A) (A) (A) (A) (A) (A) (A) (A) (A) (A) (A)
                 (A) (A) (A) (A) (A) (A) (A) (A) (A) (A) (A) (A)
                 (A) (A) (A) (A) (A) (A) (A) (A) (A) (A) (A) (A)
                 (A) (A) (A) (A) (A) (A) (A) (A) (A) (A) (A) (A)
                 (A) (A) (A) (A) (A) (A) (A) (A) (A) (A) (A) (A)
                 (A) (A) (A) (A) (A) (A) (A) (A) (A) (A) (A) (A)
                 (A) (A) (A) (A) (A) (A) (A) (A) (A) (A) (A) (A)
                 (A) (A) (A) (A) (A) (A) (A) (A) (A) (A) (A) (A)
                 (A) (A) (A) (A) (A) (A) (A) (A) (A) (A) (A) (A)
                 (A) (A) (A) (A) (A) (A) (A) (A) (A) (A) (A) (A)
                 (A) (A) (A) (A) (A) (A) (A) (A) (A) (A) (A) (A)
                 (A) (A) (A) (A) (A) (A) (A) (A) (A) (A) (A) (A)
                 (A) (A) (A) (A) (A) (A) (A) (A) (A) (A) (A) (A)
                 (A) (A) (A) (A) (A) (A) (A) (A) (A) (A) (A) (A)
                 (A) (A) (A) (A) (A) (A) (A) (A) (A) (A) (A) (A)
                 (A) (A) (A) (A) (A) (A) (A) (A) (A) (A) (A) (A)
                 (A) (A) (A) (A) (A) (A) (A) (A) (A) (A) (A) (A)
                 (A) (A) (A) (A) (A) (A) (A) (A) (A) (A) (A) (A)
                 (A) (A) (A) (A) (A) (A) (A) (A) (A) (A) (A) (A)
                 (A) (A) (A) (A) (A) (A) (A) (A) (A) (A) (A) (A)
                 (A) (A) (A) (A) (A) (A) (A) (A) (A) (A) (A) (A)
                 (A) (A) (A) (A) (A) (A) (A) (A) (A) (A) (A) (A)
                 (A) (A) (A) (A) (A) (A) (A) (A) (A) (A) (A) (A)
                 (A) (A) (A) (A) (A) (A) (A) (A) (A) (A) (A) (A)
                 (A) (A) (A) (A) (A) (A) (A) (A) (A) (A) (A) (A)
                 (A) (A) (A) (A) (A) (A) (A) (A) (A) (A) (A) (A)
                 (A) (A) (A) (A) (A) (A) (A) (A) (A) (A) (A) (A)
                 (A) (A) (A) (A) (A) (A) (A) (A) (A) (A) (A) (A)
                 (A) (A) (A) (A) (A) (A) (A) (A) (A) (A) (A) (A)
                 (A) (A) (A) (A) (A) (A) (A) (A) (A) (A) (A) (A)
                 (A) (A) (A) (A) (A) (A) (A) (A) (A) (A) (A) (A)
                 (A) (A) (A) (A) (A) (A) (A) (A) (A) (A) (A) (A)
                 (A) (A) (A) (A) (A) (A) (A) (A) (A) (A) (A) (A)
                 (A) (A) (A) (A) (A) (A) (A) (A) (A) (A) (A) (A)
 The electronic state of the initial guess is 2-A.
 Initial guess <Sx>= 0.0000 <Sy>= 0.0000 <Sz>= 0.5000 <S**2>= 0.7500 S= 0.5000
 Leave Link  401 at Tue Jan 27 19:38:23 2015, MaxMem= 2147483648 cpu:     711.1
 (Enter /opt/g09/l502.exe)
 UHF open shell SCF:
 Requested convergence on RMS density matrix=1.00D-08 within 128 cycles.
 Requested convergence on MAX density matrix=1.00D-06.
 Requested convergence on             energy=1.00D-06.
 No special actions if energy rises.
 Using DIIS extrapolation, IDIIS=  1040.
 Integral symmetry usage will be decided dynamically.
      1564787 words used for storage of precomputed grid.
 IEnd=    12415840 IEndB=    12415840 NGot=  2147483648 MDV=  2138677369
 LenX=  2138677369 LenY=  2135084449
 Fock matrices will be formed incrementally for  20 cycles.
 Integral accuracy reduced to 1.0D-05 until final iterations.

 Cycle   1  Pass 0  IDiag  1:
 FoFCou: FMM=T IPFlag=           0 FMFlag=      100000 FMFlg1=        2001
         NFxFlg=           0 DoJE=F BraDBF=F KetDBF=F FulRan=T
         Omega=  0.000000  0.000000  1.000000  0.000000  0.000000 ICntrl=       0 IOpCl=  1
         NMat0=    1 NMatS0=    1 NMatT0=    0 NMatD0=    1 NMtDS0=    0 NMtDT0=    0
         I1Cent=           0 NGrid=           0.
 Symmetry not used in FoFCou.
 FMM levels:  10  Number of levels for PrismC:   9
 E= -4404.55110848916    
 DIIS: error= 1.90D-02 at cycle   1 NSaved=   1.
 NSaved= 1 IEnMin= 1 EnMin= -4404.55110848916     IErMin= 1 ErrMin= 1.90D-02
 ErrMax= 1.90D-02 EMaxC= 1.00D-01 BMatC= 6.63D+00 BMatP= 6.63D+00
 IDIUse=3 WtCom= 8.10D-01 WtEn= 1.90D-01
 Coeff-Com:  0.100D+01
 Coeff-En:   0.100D+01
 Coeff:      0.100D+01
 Gap=     0.215 Goal=   None    Shift=    0.000
 Gap=    -0.046 Goal=   None    Shift=    0.000
 GapD=   -0.046 DampG=0.250 DampE=0.500 DampFc=0.2500 IDamp=-1.
 Damping current iteration by 2.50D-01
 RMSDP=2.09D-03 MaxDP=1.90D-01              OVMax= 9.14D-01

 Cycle   2  Pass 0  IDiag  1:
 RMSU=  3.47D-04    CP:  9.81D-01
 E= -4405.21029354079     Delta-E=       -0.659185051638 Rises=F Damp=T
 DIIS: error= 1.11D-02 at cycle   2 NSaved=   2.
 NSaved= 2 IEnMin= 2 EnMin= -4405.21029354079     IErMin= 2 ErrMin= 1.11D-02
 ErrMax= 1.11D-02 EMaxC= 1.00D-01 BMatC= 1.83D+00 BMatP= 6.63D+00
 IDIUse=3 WtCom= 8.89D-01 WtEn= 1.11D-01
 Coeff-Com: -0.868D+00 0.187D+01
 Coeff-En:   0.000D+00 0.100D+01
 Coeff:     -0.772D+00 0.177D+01
 Gap=     0.169 Goal=   None    Shift=    0.000
 Gap=     0.011 Goal=   None    Shift=    0.000
 RMSDP=1.05D-03 MaxDP=1.38D-01 DE=-6.59D-01 OVMax= 8.55D-01

 Cycle   3  Pass 0  IDiag  1:
 RMSU=  4.82D-04    CP:  9.40D-01  2.35D+00
 E= -4406.13964553611     Delta-E=       -0.929351995317 Rises=F Damp=F
 DIIS: error= 7.98D-03 at cycle   3 NSaved=   3.
 NSaved= 3 IEnMin= 3 EnMin= -4406.13964553611     IErMin= 3 ErrMin= 7.98D-03
 ErrMax= 7.98D-03 EMaxC= 1.00D-01 BMatC= 9.60D-01 BMatP= 1.83D+00
 IDIUse=3 WtCom= 9.20D-01 WtEn= 7.98D-02
 Coeff-Com: -0.575D+00 0.116D+01 0.414D+00
 Coeff-En:   0.000D+00 0.000D+00 0.100D+01
 Coeff:     -0.529D+00 0.107D+01 0.461D+00
 Gap=     0.177 Goal=   None    Shift=    0.000
 Gap=     0.023 Goal=   None    Shift=    0.000
 RMSDP=6.67D-04 MaxDP=9.99D-02 DE=-9.29D-01 OVMax= 9.06D-01

 Cycle   4  Pass 0  IDiag  1:
 RMSU=  2.42D-04    CP:  9.41D-01  2.55D+00  3.10D-01
 E= -4406.27976344898     Delta-E=       -0.140117912866 Rises=F Damp=F
 DIIS: error= 6.60D-03 at cycle   4 NSaved=   4.
 NSaved= 4 IEnMin= 4 EnMin= -4406.27976344898     IErMin= 4 ErrMin= 6.60D-03
 ErrMax= 6.60D-03 EMaxC= 1.00D-01 BMatC= 4.35D-01 BMatP= 9.60D-01
 IDIUse=3 WtCom= 9.34D-01 WtEn= 6.60D-02
 Coeff-Com: -0.241D+00 0.485D+00 0.371D+00 0.385D+00
 Coeff-En:   0.000D+00 0.000D+00 0.374D+00 0.626D+00
 Coeff:     -0.225D+00 0.453D+00 0.372D+00 0.401D+00
 Gap=     0.151 Goal=   None    Shift=    0.000
 Gap=     0.008 Goal=   None    Shift=    0.000
 RMSDP=5.11D-04 MaxDP=7.31D-02 DE=-1.40D-01 OVMax= 8.47D-01

 Cycle   5  Pass 0  IDiag  1:
 RMSU=  1.32D-04    CP:  9.43D-01  2.30D+00  6.79D-01  1.82D-01
 E= -4406.37989028327     Delta-E=       -0.100126834295 Rises=F Damp=F
 DIIS: error= 2.49D-03 at cycle   5 NSaved=   5.
 NSaved= 5 IEnMin= 5 EnMin= -4406.37989028327     IErMin= 5 ErrMin= 2.49D-03
 ErrMax= 2.49D-03 EMaxC= 1.00D-01 BMatC= 9.93D-02 BMatP= 4.35D-01
 IDIUse=3 WtCom= 9.75D-01 WtEn= 2.49D-02
 Coeff-Com: -0.939D-01 0.188D+00 0.228D+00 0.337D+00 0.341D+00
 Coeff-En:   0.000D+00 0.000D+00 0.000D+00 0.250D+00 0.750D+00
 Coeff:     -0.915D-01 0.184D+00 0.222D+00 0.335D+00 0.351D+00
 Gap=     0.145 Goal=   None    Shift=    0.000
 Gap=    -0.001 Goal=   None    Shift=    0.000
 RMSDP=4.58D-04 MaxDP=5.89D-02 DE=-1.00D-01 OVMax= 9.41D-01

 Cycle   6  Pass 0  IDiag  1:
 RMSU=  7.18D-05    CP:  9.42D-01  2.48D+00  4.61D-01  7.72D-01 -1.72D-01
 E= -4406.38939211967     Delta-E=       -0.009501836401 Rises=F Damp=F
 DIIS: error= 2.39D-03 at cycle   6 NSaved=   6.
 NSaved= 6 IEnMin= 6 EnMin= -4406.38939211967     IErMin= 6 ErrMin= 2.39D-03
 ErrMax= 2.39D-03 EMaxC= 1.00D-01 BMatC= 5.64D-02 BMatP= 9.93D-02
 IDIUse=3 WtCom= 9.76D-01 WtEn= 2.39D-02
 Coeff-Com: -0.366D-01 0.750D-01 0.135D+00 0.197D+00 0.344D+00 0.285D+00
 Coeff-En:   0.000D+00 0.000D+00 0.000D+00 0.000D+00 0.440D+00 0.560D+00
 Coeff:     -0.357D-01 0.732D-01 0.132D+00 0.192D+00 0.347D+00 0.291D+00
 Gap=     0.144 Goal=   None    Shift=    0.000
 Gap=    -0.003 Goal=   None    Shift=    0.000
 RMSDP=3.86D-04 MaxDP=5.32D-02 DE=-9.50D-03 OVMax= 6.86D-01

 Cycle   7  Pass 0  IDiag  1:
 RMSU=  5.88D-05    CP:  9.43D-01  2.33D+00  6.56D-01  2.83D-01  7.20D-01
                    CP:  3.58D-01
 E= -4406.40493391583     Delta-E=       -0.015541796161 Rises=F Damp=F
 DIIS: error= 1.15D-03 at cycle   7 NSaved=   7.
 NSaved= 7 IEnMin= 7 EnMin= -4406.40493391583     IErMin= 7 ErrMin= 1.15D-03
 ErrMax= 1.15D-03 EMaxC= 1.00D-01 BMatC= 2.04D-02 BMatP= 5.64D-02
 IDIUse=3 WtCom= 9.89D-01 WtEn= 1.15D-02
 Coeff-Com: -0.106D-02 0.161D-02 0.266D-01 0.577D-01 0.159D+00 0.340D+00
 Coeff-Com:  0.416D+00
 Coeff-En:   0.000D+00 0.000D+00 0.000D+00 0.000D+00 0.000D+00 0.328D+00
 Coeff-En:   0.672D+00
 Coeff:     -0.105D-02 0.159D-02 0.263D-01 0.570D-01 0.157D+00 0.340D+00
 Coeff:      0.419D+00
 Gap=     0.138 Goal=   None    Shift=    0.000
 Gap=     0.007 Goal=   None    Shift=    0.000
 RMSDP=1.26D-04 MaxDP=1.39D-02 DE=-1.55D-02 OVMax= 2.47D-01

 Cycle   8  Pass 0  IDiag  1:
 RMSU=  2.77D-05    CP:  9.43D-01  2.37D+00  6.02D-01  4.17D-01  5.22D-01
                    CP:  7.07D-01  1.03D+00
 E= -4406.41217059499     Delta-E=       -0.007236679157 Rises=F Damp=F
 DIIS: error= 4.74D-04 at cycle   8 NSaved=   8.
 NSaved= 8 IEnMin= 8 EnMin= -4406.41217059499     IErMin= 8 ErrMin= 4.74D-04
 ErrMax= 4.74D-04 EMaxC= 1.00D-01 BMatC= 2.26D-03 BMatP= 2.04D-02
 IDIUse=3 WtCom= 9.95D-01 WtEn= 4.74D-03
 Coeff-Com:  0.289D-02-0.663D-02 0.927D-03 0.134D-01 0.600D-01 0.238D+00
 Coeff-Com:  0.241D+00 0.451D+00
 Coeff-En:   0.000D+00 0.000D+00 0.000D+00 0.000D+00 0.000D+00 0.342D-01
 Coeff-En:   0.000D+00 0.966D+00
 Coeff:      0.288D-02-0.660D-02 0.923D-03 0.133D-01 0.597D-01 0.237D+00
 Coeff:      0.239D+00 0.454D+00
 Gap=     0.133 Goal=   None    Shift=    0.000
 Gap=     0.011 Goal=   None    Shift=    0.000
 RMSDP=3.10D-05 MaxDP=3.11D-03 DE=-7.24D-03 OVMax= 4.10D-02

 Cycle   9  Pass 0  IDiag  1:
 RMSU=  9.65D-06    CP:  9.42D-01  2.38D+00  5.92D-01  4.42D-01  4.85D-01
                    CP:  7.78D-01  9.96D-01  9.37D-01
 E= -4406.41283690474     Delta-E=       -0.000666309752 Rises=F Damp=F
 DIIS: error= 2.10D-04 at cycle   9 NSaved=   9.
 NSaved= 9 IEnMin= 9 EnMin= -4406.41283690474     IErMin= 9 ErrMin= 2.10D-04
 ErrMax= 2.10D-04 EMaxC= 1.00D-01 BMatC= 5.02D-04 BMatP= 2.26D-03
 IDIUse=3 WtCom= 9.98D-01 WtEn= 2.10D-03
 Coeff-Com:  0.123D-02-0.300D-02-0.365D-02-0.177D-02 0.138D-01 0.127D+00
 Coeff-Com:  0.744D-01 0.315D+00 0.478D+00
 Coeff-En:   0.000D+00 0.000D+00 0.000D+00 0.000D+00 0.000D+00 0.000D+00
 Coeff-En:   0.000D+00 0.000D+00 0.100D+01
 Coeff:      0.123D-02-0.299D-02-0.364D-02-0.176D-02 0.138D-01 0.126D+00
 Coeff:      0.742D-01 0.314D+00 0.479D+00
 Gap=     0.132 Goal=   None    Shift=    0.000
 Gap=     0.013 Goal=   None    Shift=    0.000
 RMSDP=1.89D-05 MaxDP=2.74D-03 DE=-6.66D-04 OVMax= 2.51D-02

 Cycle  10  Pass 0  IDiag  1:
 RMSU=  5.42D-06    CP:  9.42D-01  2.39D+00  5.87D-01  4.55D-01  4.56D-01
                    CP:  8.12D-01  9.72D-01  1.01D+00  6.75D-01
 E= -4406.41294988862     Delta-E=       -0.000112983878 Rises=F Damp=F
 DIIS: error= 1.70D-04 at cycle  10 NSaved=  10.
 NSaved=10 IEnMin=10 EnMin= -4406.41294988862     IErMin=10 ErrMin= 1.70D-04
 ErrMax= 1.70D-04 EMaxC= 1.00D-01 BMatC= 1.97D-04 BMatP= 5.02D-04
 IDIUse=3 WtCom= 9.98D-01 WtEn= 1.70D-03
 Coeff-Com: -0.402D-04-0.180D-03-0.213D-02-0.278D-02-0.349D-02 0.501D-01
 Coeff-Com: -0.454D-02 0.162D+00 0.435D+00 0.367D+00
 Coeff-En:   0.000D+00 0.000D+00 0.000D+00 0.000D+00 0.000D+00 0.000D+00
 Coeff-En:   0.000D+00 0.000D+00 0.259D+00 0.741D+00
 Coeff:     -0.401D-04-0.179D-03-0.212D-02-0.277D-02-0.348D-02 0.501D-01
 Coeff:     -0.454D-02 0.162D+00 0.434D+00 0.367D+00
 Gap=     0.131 Goal=   None    Shift=    0.000
 Gap=     0.014 Goal=   None    Shift=    0.000
 RMSDP=1.09D-05 MaxDP=1.53D-03 DE=-1.13D-04 OVMax= 1.70D-02

 Cycle  11  Pass 0  IDiag  1:
 RMSU=  2.72D-06    CP:  9.42D-01  2.39D+00  5.84D-01  4.62D-01  4.48D-01
                    CP:  8.27D-01  9.63D-01  1.01D+00  9.35D-01  4.74D-01
 E= -4406.41300607316     Delta-E=       -0.000056184541 Rises=F Damp=F
 DIIS: error= 4.42D-05 at cycle  11 NSaved=  11.
 NSaved=11 IEnMin=11 EnMin= -4406.41300607316     IErMin=11 ErrMin= 4.42D-05
 ErrMax= 4.42D-05 EMaxC= 1.00D-01 BMatC= 2.17D-05 BMatP= 1.97D-04
 IDIUse=1 WtCom= 1.00D+00 WtEn= 0.00D+00
 Coeff-Com: -0.268D-03 0.480D-03-0.741D-03-0.157D-02-0.606D-02 0.996D-02
 Coeff-Com: -0.945D-02 0.508D-01 0.172D+00 0.270D+00 0.515D+00
 Coeff:     -0.268D-03 0.480D-03-0.741D-03-0.157D-02-0.606D-02 0.996D-02
 Coeff:     -0.945D-02 0.508D-01 0.172D+00 0.270D+00 0.515D+00
 Gap=     0.132 Goal=   None    Shift=    0.000
 Gap=     0.014 Goal=   None    Shift=    0.000
 RMSDP=3.61D-06 MaxDP=2.61D-04 DE=-5.62D-05 OVMax= 2.99D-03

 Initial convergence to 1.0D-05 achieved.  Increase integral accuracy.
 Cycle  12  Pass 1  IDiag  1:
 E= -4406.41224329993     Delta-E=        0.000762773238 Rises=F Damp=F
 DIIS: error= 3.82D-04 at cycle   1 NSaved=   1.
 NSaved= 1 IEnMin= 1 EnMin= -4406.41224329993     IErMin= 1 ErrMin= 3.82D-04
 ErrMax= 3.82D-04 EMaxC= 1.00D-01 BMatC= 6.85D-04 BMatP= 6.85D-04
 IDIUse=3 WtCom= 9.96D-01 WtEn= 3.82D-03
 Coeff-Com:  0.100D+01
 Coeff-En:   0.100D+01
 Coeff:      0.100D+01
 Gap=     0.132 Goal=   None    Shift=    0.000
 Gap=     0.014 Goal=   None    Shift=    0.000
 RMSDP=3.61D-06 MaxDP=2.61D-04 DE= 7.63D-04 OVMax= 1.43D-02

 Cycle  13  Pass 1  IDiag  1:
 RMSU=  1.38D-04    CP:  9.98D-01
 E= -4406.41237759492     Delta-E=       -0.000134294991 Rises=F Damp=F
 DIIS: error= 1.06D-04 at cycle   2 NSaved=   2.
 NSaved= 2 IEnMin= 2 EnMin= -4406.41237759492     IErMin= 2 ErrMin= 1.06D-04
 ErrMax= 1.06D-04 EMaxC= 1.00D-01 BMatC= 6.55D-05 BMatP= 6.85D-04
 IDIUse=3 WtCom= 9.99D-01 WtEn= 1.06D-03
 Coeff-Com:  0.101D+00 0.899D+00
 Coeff-En:   0.000D+00 0.100D+01
 Coeff:      0.101D+00 0.899D+00
 Gap=     0.130 Goal=   None    Shift=    0.000
 Gap=     0.014 Goal=   None    Shift=    0.000
 RMSDP=3.09D-05 MaxDP=3.91D-03 DE=-1.34D-04 OVMax= 6.32D-02

 Cycle  14  Pass 1  IDiag  1:
 RMSU=  6.08D-06    CP:  9.98D-01  1.00D+00
 E= -4406.41204624257     Delta-E=        0.000331352341 Rises=F Damp=F
 DIIS: error= 4.25D-04 at cycle   3 NSaved=   3.
 NSaved= 3 IEnMin= 2 EnMin= -4406.41237759492     IErMin= 2 ErrMin= 1.06D-04
 ErrMax= 4.25D-04 EMaxC= 1.00D-01 BMatC= 1.05D-03 BMatP= 6.55D-05
 IDIUse=3 WtCom= 3.27D-01 WtEn= 6.73D-01
 Coeff-Com: -0.379D-03 0.803D+00 0.197D+00
 Coeff-En:   0.000D+00 0.867D+00 0.133D+00
 Coeff:     -0.124D-03 0.846D+00 0.154D+00
 Gap=     0.131 Goal=   None    Shift=    0.000
 Gap=     0.014 Goal=   None    Shift=    0.000
 RMSDP=1.89D-05 MaxDP=2.32D-03 DE= 3.31D-04 OVMax= 3.88D-02

 Cycle  15  Pass 1  IDiag  1:
 RMSU=  8.77D-07    CP:  9.98D-01  1.01D+00  3.92D-01
 E= -4406.41237912692     Delta-E=       -0.000332884345 Rises=F Damp=F
 DIIS: error= 9.84D-05 at cycle   4 NSaved=   4.
 NSaved= 4 IEnMin= 4 EnMin= -4406.41237912692     IErMin= 4 ErrMin= 9.84D-05
 ErrMax= 9.84D-05 EMaxC= 1.00D-01 BMatC= 6.54D-05 BMatP= 6.55D-05
 IDIUse=1 WtCom= 1.00D+00 WtEn= 0.00D+00
 Coeff-Com: -0.469D-02 0.572D+00 0.499D-01 0.383D+00
 Coeff:     -0.469D-02 0.572D+00 0.499D-01 0.383D+00
 Gap=     0.132 Goal=   None    Shift=    0.000
 Gap=     0.014 Goal=   None    Shift=    0.000
 RMSDP=5.45D-06 MaxDP=6.96D-04 DE=-3.33D-04 OVMax= 1.04D-02

 Cycle  16  Pass 1  IDiag  1:
 RMSU=  5.03D-07    CP:  9.98D-01  1.01D+00  2.22D-01  3.53D-01
 E= -4406.41239991861     Delta-E=       -0.000020791693 Rises=F Damp=F
 DIIS: error= 1.20D-05 at cycle   5 NSaved=   5.
 NSaved= 5 IEnMin= 5 EnMin= -4406.41239991861     IErMin= 5 ErrMin= 1.20D-05
 ErrMax= 1.20D-05 EMaxC= 1.00D-01 BMatC= 1.10D-06 BMatP= 6.54D-05
 IDIUse=1 WtCom= 1.00D+00 WtEn= 0.00D+00
 Coeff-Com: -0.354D-02 0.396D+00 0.252D-01 0.289D+00 0.293D+00
 Coeff:     -0.354D-02 0.396D+00 0.252D-01 0.289D+00 0.293D+00
 Gap=     0.132 Goal=   None    Shift=    0.000
 Gap=     0.014 Goal=   None    Shift=    0.000
 RMSDP=6.41D-07 MaxDP=9.52D-05 DE=-2.08D-05 OVMax= 1.11D-03

 Cycle  17  Pass 1  IDiag  1:
 RMSU=  2.30D-07    CP:  9.98D-01  1.01D+00  2.18D-01  5.62D-01  5.58D-01
 E= -4406.41240023160     Delta-E=       -0.000000312990 Rises=F Damp=F
 DIIS: error= 5.18D-06 at cycle   6 NSaved=   6.
 NSaved= 6 IEnMin= 6 EnMin= -4406.41240023160     IErMin= 6 ErrMin= 5.18D-06
 ErrMax= 5.18D-06 EMaxC= 1.00D-01 BMatC= 2.24D-07 BMatP= 1.10D-06
 IDIUse=1 WtCom= 1.00D+00 WtEn= 0.00D+00
 Coeff-Com: -0.310D-03 0.188D-01-0.110D-01 0.217D-01 0.236D+00 0.735D+00
 Coeff:     -0.310D-03 0.188D-01-0.110D-01 0.217D-01 0.236D+00 0.735D+00
 Gap=     0.132 Goal=   None    Shift=    0.000
 Gap=     0.014 Goal=   None    Shift=    0.000
 RMSDP=2.61D-07 MaxDP=2.75D-05 DE=-3.13D-07 OVMax= 3.08D-04

 Cycle  18  Pass 1  IDiag  1:
 RMSU=  1.14D-07    CP:  9.98D-01  1.01D+00  2.17D-01  5.74D-01  7.57D-01
                    CP:  1.05D+00
 E= -4406.41240030878     Delta-E=       -0.000000077180 Rises=F Damp=F
 DIIS: error= 2.88D-06 at cycle   7 NSaved=   7.
 NSaved= 7 IEnMin= 7 EnMin= -4406.41240030878     IErMin= 7 ErrMin= 2.88D-06
 ErrMax= 2.88D-06 EMaxC= 1.00D-01 BMatC= 8.30D-08 BMatP= 2.24D-07
 IDIUse=1 WtCom= 1.00D+00 WtEn= 0.00D+00
 Coeff-Com:  0.166D-02-0.200D+00-0.268D-01-0.142D+00 0.833D-01 0.633D+00
 Coeff-Com:  0.652D+00
[...]
     6  C    0.000000   0.000000   0.000000
     7  C    0.000000   0.000000   0.000000
     8  C    0.000000   0.000000  -0.000001
     9  C    0.000000   0.000000   0.000003
    10  C    0.000000   0.000000   0.000000
    11  C    0.000000   0.000000   0.000000
    12  C    0.000000   0.000000   0.000000
    13  C    0.000000   0.000000   0.000000
    14  C    0.000000   0.000000   0.000000
    15  C    0.000000   0.000000   0.000000
    16  C    0.000000   0.000000   0.000000
    17  C    0.000000   0.000000   0.000000
    18  C    0.000000   0.000000   0.000000
    19  C    0.000000   0.000000   0.000000
    20  C    0.000000   0.000000   0.000000
    21  C    0.000000   0.000000   0.000000
    22  C   -0.000001   0.000000  -0.000009
    23  C    0.000007   0.000001   0.000127
    24  C    0.000004   0.000002  -0.000114
    25  C    0.000000   0.000000  -0.000006
    26  N    0.000000   0.000000   0.000000
    27  N    0.000000   0.000000   0.000000
    28  N    0.000000   0.000000   0.000000
    29  N   -0.000023  -0.000009  -0.000430
    30  C    0.000012  -0.000006  -0.000061
    31  C    0.000000   0.000000   0.000000
    32  C    0.000003   0.000008   0.000021
    33  C    0.000000   0.000000   0.000000
    34  C    0.000000   0.000000   0.000000
    35  C    0.000000   0.000000   0.000000
    36  C    0.000000   0.000000   0.000000
    37  C    0.000000   0.000000   0.000000
    38  C    0.000000   0.000000   0.000000
    39  C    0.000000   0.000000   0.000000
    40  C    0.000000   0.000000   0.000000
    41  C    0.000000   0.000000   0.000000
    42  C    0.000000   0.000000   0.000000
    43  C    0.000000   0.000000   0.000000
    44  C    0.000000   0.000000   0.000000
    45  C    0.000000   0.000000   0.000000
    46  C    0.000000   0.000000   0.000000
    47  C    0.000000   0.000000   0.000000
    48  C    0.000000   0.000000   0.000000
    49  C    0.000000   0.000000   0.000000
    50  C    0.000000   0.000000   0.000000
    51  C    0.000000   0.000000   0.000000
    52  C    0.000000   0.000000   0.000000
    53  C    0.000000   0.000000   0.000000
    54  C    0.000000   0.000000   0.000000
    55  C    0.000000   0.000000   0.000000
    56  C    0.000000   0.000000   0.000000
    57  C    0.000000   0.000000   0.000000
    58  C    0.000000   0.000000   0.000000
    59  C    0.000000   0.000000   0.000000
    60  C    0.000000   0.000000   0.000000
    61  C    0.000000   0.000000   0.000000
    62  C    0.000000   0.000000   0.000000
    63  C    0.000000   0.000000   0.000000
    64  C    0.000000   0.000000   0.000000
    65  C    0.000000   0.000000   0.000000
    66  C    0.000000   0.000000   0.000000
    67  C    0.000000   0.000000   0.000000
    68  C    0.000003   0.000010   0.000108
    69  C    0.000000  -0.000003  -0.000014
    70  C    0.000000  -0.000001  -0.000001
    71  C    0.000000   0.000000   0.000001
    72  C    0.000001   0.000001  -0.000001
    73  C   -0.000004   0.000000  -0.000020
    74  C    0.000001   0.000000   0.000002
    75  C   -0.000005   0.000000  -0.000002
    76  C   -0.000036   0.000000  -0.000005
    77  C    0.000158   0.000027   0.000227
    78  H    0.000000   0.000000  -0.000001
    79  H    0.000000   0.000000   0.000000
    80  H    0.000000   0.000000   0.000000
    81  H    0.000000   0.000000   0.000000
    82  H    0.000000   0.000000   0.000000
    83  H    0.000000   0.000000   0.000000
    84  H    0.000000   0.000000   0.000000
    85  H    0.000004   0.000000   0.000027
    86  H    0.000000   0.000000   0.000000
    87  H    0.000000   0.000000   0.000000
    88  H    0.000000   0.000000   0.000000
    89  H    0.000000   0.000000   0.000000
    90  O    0.000000   0.000000   0.000000
    91  C    0.000000   0.000000   0.000000
    92  O    0.000000   0.000000   0.000000
    93  C    0.000000   0.000000   0.000000
    94  O    0.000000   0.000000   0.000000
    95  O    0.000000   0.000000   0.000000
    96  C    0.000000   0.000000   0.000000
    97  C    0.000000   0.000000   0.000000
    98  H    0.000000   0.000000   0.000000
    99  H    0.000000   0.000000   0.000000
   100  H    0.000000   0.000000   0.000000
   101  H    0.000000   0.000000   0.000000
   102  H    0.000000   0.000000   0.000000
   103  H    0.000000   0.000000   0.000000
   104  H    0.000000   0.000000   0.000000
   105  H    0.000000   0.000000   0.000000
   106  H    0.000000   0.000000   0.000000
   107  H    0.000000   0.000000   0.000000
   108  H    0.000000   0.000000   0.000000
   109  H    0.000000   0.000000   0.000018
   110  H    0.000000   0.000000   0.000000
   111  H    0.000000   0.000000   0.000000
   112  H    0.000000   0.000000   0.000000
   113  H    0.000000   0.000000   0.000000
   114  H    0.000000   0.000000   0.000000
   115  H    0.000000   0.000000   0.000000
   116  H    0.000000   0.000000   0.000000
   117  H    0.000000   0.000000   0.000000
   118  H    0.000000   0.000000   0.000000
   119  H    0.000000   0.000000   0.000000
   120  H    0.000000   0.000000   0.000000
   121  H    0.000000   0.000000   0.000000
   122  H    0.000000   0.000000   0.000000
   123  H    0.000000   0.000000   0.000000
   124  H    0.000000   0.000000   0.000000
   125  H    0.000000   0.000000   0.000000
   126  H    0.000000   0.000000   0.000000
   127  O    0.000000   0.000000   0.000000
   128  H    0.000000   0.000000   0.000000
   129  H    0.000000   0.000000   0.000000
   130  O    0.000000   0.000000   0.000000
   131  O    0.000000   0.000000   0.000000
   132  H    0.000000   0.000000   0.000000
   133  H    0.000000   0.000000   0.000000
   134  H    0.000005   0.000001   0.000002
   135  O   -0.000024   0.000015  -0.000001
   136  H    0.000000   0.000000   0.000000
   137  O    0.000000   0.000000   0.000000
   138  H    0.000000   0.000000   0.000000
   139  H    0.000000   0.000000   0.000000
   140  O    0.000000   0.000000   0.000000
   141  O    0.000000   0.000000   0.000000
   142  H    0.000000   0.000000   0.000000
   143  H    0.000000   0.000000   0.000000
   144  H    0.000000   0.000000   0.000000
   145  O    0.000000   0.000000   0.000000
   146  C    0.000000   0.000000   0.000000
   147  C    0.000000   0.000000   0.000000
   148  C    0.000000   0.000000   0.000000
   149  C    0.000000   0.000000   0.000000
   150  H    0.000000   0.000000   0.000000
   151  H    0.000000   0.000000   0.000000
   152  H    0.000000   0.000000   0.000000
   153  H    0.000000   0.000000   0.000000
   154  H    0.000000   0.000000   0.000000
   155  H    0.000000   0.000000   0.000000
   156  H    0.000000   0.000000   0.000000
   157  H    0.000000   0.000000   0.000000
   158  H    0.000000   0.000000   0.000000
   159  H    0.000000   0.000000   0.000000
   160  H    0.000000   0.000000   0.000000
   161  H    0.000000   0.000000   0.000000
   162  C    0.000000   0.000000   0.000000
   163  H    0.000000   0.000000   0.000000
   164  H    0.000000   0.000000   0.000000
   165  H    0.000000   0.000000   0.000000
   166  C    0.000000   0.000000   0.000000
   167  H    0.000000   0.000000   0.000000
   168  H    0.000000   0.000000   0.000000
   169  H    0.000000   0.000000   0.000000
   170  C    0.000000   0.000000   0.000000
   171  H    0.000000   0.000000   0.000000
   172  H    0.000000   0.000000   0.000000
   173  H    0.000000   0.000000   0.000000
   174  C   -0.000124  -0.000020   0.000021
   175  H    0.000036   0.000019   0.000021
   176  H    0.000019  -0.000049   0.000006
   177  H    0.000021   0.000006  -0.000072
 Mulliken atomic spin densities:
              1
     1  C   -0.004251
     2  C    0.007477
     3  C    0.013854
     4  C    0.015538
     5  C    0.006207
     6  C    0.004535
     7  C    0.038467
     8  C    0.033764
     9  C    0.006288
    10  C    0.007569
    11  C    0.017582
    12  C    0.027196
    13  C   -0.002115
    14  C   -0.003357
    15  C    0.012673
    16  C    0.006655
    17  C    0.000950
    18  C    0.000168
    19  C    0.007572
    20  C    0.011380
    21  C   -0.002764
    22  C    0.001150
    23  C    0.023965
    24  C    0.018475
    25  C    0.004613
    26  N    0.109023
    27  N    0.070156
    28  N    0.071934
    29  N    0.095942
    30  C   -0.007199
    31  C   -0.004195
    32  C   -0.000203
    33  C    0.006222
    34  C   -0.001120
    35  C   -0.005537
    36  C    0.006143
    37  C   -0.004188
    38  C    0.023936
    39  C   -0.004502
    40  C    0.030588
    41  C   -0.005755
    42  C    0.017691
    43  C    0.027822
    44  C   -0.007155
    45  C    0.031722
    46  C   -0.009808
    47  C    0.022405
    48  C    0.014437
    49  C   -0.007192
    50  C    0.018378
    51  C   -0.007022
    52  C    0.014855
    53  C    0.005298
    54  C   -0.002188
    55  C    0.005150
    56  C   -0.001729
    57  C    0.005550
    58  C    0.005759
    59  C   -0.001848
    60  C    0.005396
    61  C   -0.002253
    62  C    0.005498
    63  C    0.026463
    64  C   -0.006456
    65  C    0.031994
    66  C   -0.004239
    67  C    0.017125
    68  C    0.019421
    69  C   -0.008109
    70  C    0.028148
    71  C   -0.006172
    72  C    0.024057
    73  C    0.016413
    74  C   -0.008095
    75  C    0.019777
    76  C   -0.006591
    77  C    0.014981
    78  H   -0.000298
    79  H   -0.000074
    80  H   -0.000576
    81  H    0.000141
    82  H    0.000164
    83  H   -0.000628
    84  H   -0.000293
    85  H   -0.001188
    86  H   -0.000127
    87  H   -0.001393
    88  H   -0.000099
    89  H   -0.000401
    90  O    0.012597
    91  C   -0.001027
    92  O    0.017167
    93  C   -0.001380
    94  O    0.016465
    95  O    0.013795
    96  C   -0.001134
    97  C   -0.001317
    98  H    0.000140
    99  H   -0.000813
   100  H   -0.001300
   101  H    0.000248
   102  H    0.000073
   103  H   -0.001097
   104  H    0.000373
   105  H   -0.001012
   106  H   -0.001117
   107  H    0.000216
   108  H    0.000299
   109  H   -0.000842
   110  H    0.000170
   111  H   -0.001189
   112  H    0.000038
   113  H   -0.000817
   114  H    0.001208
   115  H    0.001304
   116  H   -0.000020
   117  H    0.001030
   118  H    0.001039
   119  H   -0.000024
   120  H   -0.000021
   121  H    0.001186
   122  H    0.001208
   123  H    0.000929
   124  H    0.000940
   125  H   -0.000020
   126  H    0.000184
   127  O    0.000691
   128  H   -0.000238
   129  H    0.000244
   130  O    0.000786
   131  O    0.002943
   132  H    0.000411
   133  H   -0.000862
   134  H    0.000356
   135  O    0.000564
   136  H    0.000175
   137  O    0.000664
   138  H   -0.000227
   139  H    0.000235
   140  O    0.000726
   141  O    0.002595
   142  H    0.000402
   143  H   -0.000805
   144  H    0.000372
   145  O    0.003194
   146  C   -0.000093
   147  C   -0.000127
   148  C   -0.000098
   149  C   -0.000143
   150  H    0.000000
   151  H    0.000064
   152  H   -0.000033
   153  H    0.000179
   154  H    0.000260
   155  H   -0.000071
   156  H    0.000075
   157  H   -0.000035
   158  H    0.000001
   159  H   -0.000044
   160  H    0.000222
   161  H    0.000199
   162  C   -0.000254
   163  H   -0.000006
   164  H    0.000300
   165  H    0.000152
   166  C   -0.000073
   167  H    0.000001
   168  H    0.000095
   169  H    0.000013
   170  C   -0.000076
   171  H    0.000002
   172  H    0.000016
   173  H    0.000096
   174  C    0.000224
   175  H    0.000059
   176  H    0.000001
   177  H   -0.000154
 Sum of Mulliken atomic spin densities =   1.00000
 Electronic spatial extent (au):  <R**2>=         109357.2754
 Charge=              1.0000 electrons
 Dipole moment (field-independent basis, Debye):
    X=              1.5300    Y=             -4.0256    Z=              1.7282  Tot=              4.6404
 Quadrupole moment (field-independent basis, Debye-Ang):
   XX=           -413.3573   YY=           -419.7334   ZZ=           -491.5106
   XY=            -14.2765   XZ=              5.9175   YZ=             -1.8749
 Traceless Quadrupole moment (field-independent basis, Debye-Ang):
   XX=             28.1765   YY=             21.8004   ZZ=            -49.9769
   XY=            -14.2765   XZ=              5.9175   YZ=             -1.8749
 Octapole moment (field-independent basis, Debye-Ang**2):
  XXX=             -4.1237  YYY=           -180.2384  ZZZ=              6.6492  XYY=            -12.9938
  XXY=           -340.2122  XXZ=              9.8107  XZZ=             45.1501  YZZ=            -49.1875
  YYZ=           -137.6393  XYZ=             17.2157
 Hexadecapole moment (field-independent basis, Debye-Ang**3):
 XXXX=         -56900.8870 YYYY=         -52250.0789 ZZZZ=         -17435.0502 XXXY=            549.9347
 XXXZ=            294.1496 YYYX=          -1171.5012 YYYZ=           -377.0501 ZZZX=             35.3017
 ZZZY=            -87.8065 XXYY=         -18121.0755 XXZZ=         -12190.4362 YYZZ=         -10596.3614
 XXYZ=            277.7928 YYXZ=            970.5758 ZZXY=           -723.1065
 N-N= 2.010773881410D+04 E-N=-7.560197092175D+04  KE= 6.565836122456D+03
 Leave Link  601 at Tue Jan 27 20:56:15 2015, MaxMem= 2147483648 cpu:     128.0
 (Enter /opt/g09/l9999.exe)
 1\1\GINC-CHPC-SCANDIUM\SP\UB3LYP\CC-pVDZ\C85H76N4O12(1+,2)\JARVIST\27-
 Jan-2015\0\\#p sp B3LYP/cc-pVDZ\\Auto Spiro; and yes I said yes I will
  Yes.\\1,2\C,0,-0.016548,0.049694,0.162459\C,0,0.763366,0.936178,-0.81
 6087\C,0,0.445383,0.60446,-2.146763\C,0,-0.548835,-0.471886,-2.139903\
 C,0,-0.819357,-0.829311,-0.805862\C,0,0.878509,-0.734641,1.129269\C,0,
 0.538061,-0.447617,2.4675\C,0,-0.590425,0.486342,2.475034\C,0,-0.90998
 6,0.820567,1.142579\C,0,1.917219,-1.595348,0.821623\C,0,2.648225,-2.19
 3311,1.86541\C,0,2.319483,-1.897983,3.199383\C,0,1.272279,-1.028313,3.
 503705\C,0,-1.210528,-1.121757,-3.185625\C,0,-2.12882,-2.125998,-2.889
 825\C,0,-2.401761,-2.481377,-1.557814\C,0,-1.737924,-1.826453,-0.50763
 7\C,0,1.698273,1.922916,-0.53267\C,0,2.327693,2.593717,-1.593894\C,0,2
 .004453,2.26638,-2.921452\C,0,1.071296,1.271852,-3.203332\C,0,-1.34313
 3,1.030115,3.517239\C,0,-2.38227,1.914706,3.225693\C,0,-2.681158,2.267
 3,1.898548\C,0,-1.936125,1.699981,0.847862\N,0,3.713097,-3.081818,1.56
 9892\N,0,-3.346594,-3.51056,-1.264578\N,0,3.292787,3.610721,-1.319775\
 N,0,-3.727821,3.186455,1.616909\C,0,-4.980212,3.059871,2.272203\C,0,2.
 858027,4.767033,-0.615183\C,0,-3.549346,4.169658,0.605569\C,0,4.627002
 ,3.493952,-1.757592\C,0,3.556788,-4.072974,0.56811\C,0,4.943546,-2.961
 306,2.265936\C,0,-4.681874,-3.435177,-1.711286\C,0,-2.879292,-4.665704
 ,-0.578776\C,0,-5.486324,-4.580005,-1.802117\C,0,-6.818617,-4.502692,-
 2.217052\C,0,-7.377134,-3.271537,-2.568075\C,0,-6.581579,-2.1217,-2.48
 5369\C,0,-5.262856,-2.197606,-2.057843\C,0,4.605279,-4.413537,-0.29183
 6\C,0,4.446099,-5.399605,-1.27156\C,0,3.217079,-6.048699,-1.414426\C,0
 ,2.164278,-5.718329,-0.550533\C,0,2.333516,-4.753654,0.429348\C,0,5.42
 0655,-4.017682,3.072004\C,0,6.646814,-3.908067,3.740155\C,0,7.381634,-
 2.729253,3.625742\C,0,6.928424,-1.662687,2.852382\C,0,5.714627,-1.7817
 68,2.161435\C,0,-3.196075,-4.877689,0.77867\C,0,-2.740593,-6.022228,1.
 4467\C,0,-1.95917,-6.946068,0.755279\C,0,-1.62434,-6.761975,-0.584641\
 C,0,-2.089967,-5.621046,-1.254649\C,0,2.076614,5.743068,-1.27055\C,0,1
 .640976,6.885164,-0.582224\C,0,1.998726,7.050296,0.754258\C,0,2.773688
 ,6.106083,1.425284\C,0,3.197938,4.960076,0.739642\C,0,5.163728,2.25553
 3,-2.143522\C,0,6.487602,2.139684,-2.577499\C,0,7.316901,3.262838,-2.6
 19527\C,0,6.794508,4.501038,-2.225801\C,0,5.475392,4.618149,-1.809641\
 C,0,-2.316454,4.834388,0.479325\C,0,-2.120914,5.789752,-0.505555\C,0,-
 3.156747,6.122906,-1.387578\C,0,-4.39386,5.484775,-1.260731\C,0,-4.579
 405,4.50996,-0.275952\C,0,-5.703827,1.839739,2.207594\C,0,-6.947196,1.
 718398,2.836612\C,0,-7.500273,2.814801,3.502299\C,0,-6.816842,4.023701
 ,3.563524\C,0,-5.559609,4.142283,2.963297\H,0,-2.185936,1.944354,-0.17
 9427\H,0,1.970174,2.168847,0.489218\H,0,2.492621,2.809606,-3.723764\H,
 0,0.829579,1.029714,-4.235316\H,0,-1.00738,-0.859231,-4.22094\H,0,-2.6
 4211,-2.656153,-3.685235\H,0,-1.124264,0.77902,4.552439\H,0,-2.971795,
 2.341541,4.031448\H,0,1.0297,-0.819285,4.543021\H,0,2.887945,-2.368136
 ,3.995964\H,0,-1.970432,-2.09344,0.518695\H,0,2.187494,-1.802948,-0.20
 8781\O,0,-2.853388,7.074797,-2.330895\C,0,-3.868497,7.44263,-3.247993\
 O,0,8.630751,3.261528,-3.022664\C,0,9.188953,2.031525,-3.440936\O,0,-8
 .669403,-3.082415,-2.994789\O,0,2.936649,-7.011228,-2.355209\C,0,3.966
 514,-7.369757,-3.258163\C,0,-9.498097,-4.222598,-3.108693\H,0,-7.01997
 2,-1.165297,-2.754914\H,0,-4.672906,-1.289909,-1.993392\H,0,5.557942,-
 3.900886,-0.201363\H,0,5.281909,-5.63154,-1.922472\H,0,-7.400861,-5.41
 63,-2.269187\H,0,-5.071768,-5.549063,-1.545916\H,0,1.217981,-6.240679,
 -0.646302\H,0,1.511984,-4.519495,1.09786\H,0,-5.53976,4.010734,-0.1950
 64\H,0,-5.216861,5.719739,-1.926412\H,0,-1.166173,6.297778,-0.593066\H
 ,0,-1.502439,4.590248,1.153971\H,0,6.852622,1.161809,-2.872112\H,0,4.5
 43279,1.366764,-2.112236\H,0,7.44082,5.373084,-2.263655\H,0,5.093857,5
 .592147,-1.522784\H,0,8.655678,1.614949,-4.307181\H,0,9.187413,1.28598
 1,-2.632881\H,0,10.221018,2.247922,-3.725643\H,0,4.839222,-7.784109,-2
 .734592\H,0,4.289933,-6.513605,-3.866183\H,0,3.543977,-8.135783,-3.911
 986\H,0,-10.465491,-3.860254,-3.463415\H,0,-9.634982,-4.726218,-2.1410
 73\H,0,-9.097572,-4.947584,-3.831404\H,0,-4.742338,7.867523,-2.735545\
 H,0,-4.192945,6.588549,-3.858121\H,0,-3.428958,8.202405,-3.897736\H,0,
 3.029578,6.259927,2.466379\O,0,3.940164,3.965352,1.304644\H,0,1.665613
 ,7.937399,1.286163\H,0,1.047374,7.64188,-1.080859\O,0,1.806604,5.49341
 8,-2.578649\O,0,-5.111556,0.844616,1.494399\H,0,-7.499768,0.788019,2.7
 82279\H,0,-8.474088,2.716725,3.974123\H,0,-7.228556,4.8899,4.071128\O,
 0,-4.946992,5.373467,3.00714\H,0,-2.976712,-6.190006,2.490286\O,0,-3.9
 4739,-3.902528,1.365473\H,0,-1.60204,-7.83163,1.273982\H,0,-1.02511,-7
 .503158,-1.099556\O,0,-1.843521,-5.353081,-2.56404\O,0,5.196667,-0.814
 273,1.358874\H,0,7.524241,-0.761756,2.771386\H,0,8.32857,-2.640302,4.1
 51418\H,0,7.017129,-4.718329,4.356471\O,0,4.60728,-5.10834,3.14342\C,0
 ,-1.024315,-6.250245,-3.302507\C,0,5.865691,0.436494,1.280219\C,0,1.00
 5852,6.421088,-3.300245\C,0,-5.752908,-0.420718,1.423491\H,0,-0.967049
 ,-5.832062,-4.308976\H,0,-1.470431,-7.252292,-3.352823\H,0,-0.013606,-
 6.321096,-2.882693\H,0,-6.715378,-0.356043,0.899839\H,0,-5.91586,-0.83
 9838,2.425687\H,0,-5.081386,-1.071226,0.862001\H,0,1.477715,7.411673,-
 3.340052\H,0,-0.000533,6.511888,-2.874065\H,0,0.932649,6.017852,-4.311
 799\H,0,5.243724,1.075493,0.65245\H,0,6.857964,0.335548,0.821431\H,0,5
 .974057,0.891678,2.273755\C,0,5.047022,-6.232786,3.885792\H,0,4.259302
 ,-6.981361,3.783514\H,0,5.18155,-5.990248,4.948567\H,0,5.986523,-6.637
 972,3.487581\C,0,-4.311254,-4.063617,2.728057\H,0,-4.898439,-3.180278,
 2.984098\H,0,-3.428939,-4.112237,3.37901\H,0,-4.922772,-4.962836,2.877
 47\C,0,4.338247,4.10992,2.659371\H,0,4.913722,3.213469,2.895989\H,0,4.
 970483,4.996012,2.800452\H,0,3.472389,4.170899,3.331148\C,0,-3.789991,
 5.468945,3.836115\H,0,-4.029241,5.195868,4.87323\H,0,-3.478369,6.51534
 9,3.800118\H,0,-2.973276,4.836704,3.472778\\Version=EM64L-G09RevA.02\S
 tate=2-A\HF=-4406.4124004\S2=0.75463\S2-1=0.\S2A=0.75002\RMSD=1.991e-0
 9\Dipole=0.6019288,-1.5838082,0.6799166\Quadrupole=20.9485517,16.20803
 39,-37.1565856,-10.6142266,4.3994941,-1.3939794\PG=C01 [X(C85H76N4O12)
 ]\\@


 Some scientists claim that hydrogen, because it is so
 plentiful, is the basic building block of the universe. 
 I dispute that. I say that stupidity is far more
 abundant than hydrogen, and THAT is the basic building 
 block of the universe.
                   --Frank Zappa
 Job cpu time:  1 days  7 hours 28 minutes 47.0 seconds.
 File lengths (MBytes):  RWF=   2994 Int=      0 D2E=      0 Chk=    149 Scr=      1
 Normal termination of Gaussian 09 at Tue Jan 27 20:56:16 2015.
