 Entering Gaussian System, Link 0=g09
 Input=sp_6_B3LYP_cc-pVDZ.com
 Output=sp_6_B3LYP_cc-pVDZ.log
 Initial command:
 /opt/g09/l1.exe /home/jarvist/2014-07_SPIRO/b3lyp-631gs_opt/delta_scf/cation/Gau-36345.inp -scrdir=/home/jarvist/2014-07_SPIRO/b3lyp-631gs_opt/delta_scf/cation/
 Default is to use a total of   8 processors:
                                8 via shared-memory
                                1 via Linda
 Entering Link 1 = /opt/g09/l1.exe PID=     36347.
  
 Copyright (c) 1988,1990,1992,1993,1995,1998,2003,2009, Gaussian, Inc.
                  All Rights Reserved.
  
 This is part of the Gaussian(R) 09 program.  It is based on
 the Gaussian(R) 03 system (copyright 2003, Gaussian, Inc.),
 the Gaussian(R) 98 system (copyright 1998, Gaussian, Inc.),
 the Gaussian(R) 94 system (copyright 1995, Gaussian, Inc.),
 the Gaussian 92(TM) system (copyright 1992, Gaussian, Inc.),
 the Gaussian 90(TM) system (copyright 1990, Gaussian, Inc.),
 the Gaussian 88(TM) system (copyright 1988, Gaussian, Inc.),
 the Gaussian 86(TM) system (copyright 1986, Carnegie Mellon
 University), and the Gaussian 82(TM) system (copyright 1983,
 Carnegie Mellon University). Gaussian is a federally registered
 trademark of Gaussian, Inc.
  
 This software contains proprietary and confidential information,
 including trade secrets, belonging to Gaussian, Inc.
  
 This software is provided under written license and may be
 used, copied, transmitted, or stored only in accord with that
 written license.
  
 The following legend is applicable only to US Government
 contracts under FAR:
  
                    RESTRICTED RIGHTS LEGEND
  
 Use, reproduction and disclosure by the US Government is
 subject to restrictions as set forth in subparagraphs (a)
 and (c) of the Commercial Computer Software - Restricted
 Rights clause in FAR 52.227-19.
  
 Gaussian, Inc.
 340 Quinnipiac St., Bldg. 40, Wallingford CT 06492
  
  
 ---------------------------------------------------------------
 Warning -- This program may not be used in any manner that
 competes with the business of Gaussian, Inc. or will provide
 assistance to any competitor of Gaussian, Inc.  The licensee
 of this program is prohibited from giving any competitor of
 Gaussian, Inc. access to this program.  By using this program,
 the user acknowledges that Gaussian, Inc. is engaged in the
 business of creating and licensing software in the field of
 computational chemistry and represents and warrants to the
 licensee that it is not a competitor of Gaussian, Inc. and that
 it will not use this program in any manner prohibited above.
 ---------------------------------------------------------------
  

 Cite this work as:
 Gaussian 09, Revision A.02,
 M. J. Frisch, G. W. Trucks, H. B. Schlegel, G. E. Scuseria, 
 M. A. Robb, J. R. Cheeseman, G. Scalmani, V. Barone, B. Mennucci, 
 G. A. Petersson, H. Nakatsuji, M. Caricato, X. Li, H. P. Hratchian, 
 A. F. Izmaylov, J. Bloino, G. Zheng, J. L. Sonnenberg, M. Hada, 
 M. Ehara, K. Toyota, R. Fukuda, J. Hasegawa, M. Ishida, T. Nakajima, 
 Y. Honda, O. Kitao, H. Nakai, T. Vreven, J. A. Montgomery, Jr., 
 J. E. Peralta, F. Ogliaro, M. Bearpark, J. J. Heyd, E. Brothers, 
 K. N. Kudin, V. N. Staroverov, R. Kobayashi, J. Normand, 
 K. Raghavachari, A. Rendell, J. C. Burant, S. S. Iyengar, J. Tomasi, 
 M. Cossi, N. Rega, J. M. Millam, M. Klene, J. E. Knox, J. B. Cross, 
 V. Bakken, C. Adamo, J. Jaramillo, R. Gomperts, R. E. Stratmann, 
 O. Yazyev, A. J. Austin, R. Cammi, C. Pomelli, J. W. Ochterski, 
 R. L. Martin, K. Morokuma, V. G. Zakrzewski, G. A. Voth, 
 P. Salvador, J. J. Dannenberg, S. Dapprich, A. D. Daniels, 
 O. Farkas, J. B. Foresman, J. V. Ortiz, J. Cioslowski, 
 and D. J. Fox, Gaussian, Inc., Wallingford CT, 2009.
 
 ******************************************
 Gaussian 09:  EM64L-G09RevA.02 11-Jun-2009
                27-Jan-2015 
 ******************************************
 %mem=16GB
 %nprocs=24
 Will use up to   24 processors via shared memory.
 Default route:  MaxDisk=100GB
 -------------------
 #p sp B3LYP/cc-pVDZ
 -------------------
 1/38=1/1;
 2/12=2,17=6,18=5,40=1/2;
 3/5=16,11=2,16=1,25=1,30=1,74=-5/1,2,3;
 4//1;
 5/5=2,38=5/2;
 6/7=2,8=2,9=2,10=2,28=1/1;
 99/5=1,9=1/99;
 Leave Link    1 at Tue Jan 27 20:56:16 2015, MaxMem= 2147483648 cpu:       1.5
 (Enter /opt/g09/l101.exe)
 ------------------------------------------
 Auto Spiro; and yes I said yes I will Yes.
 ------------------------------------------
 Symbolic Z-matrix:
 Charge =  1 Multiplicity = 2
 C                    -0.06281  -0.04565   0.29307 
 C                    -0.87114  -0.91193  -0.68063 
 C                    -0.55795  -0.58458  -2.0127 
 C                     0.46502   0.46528  -2.01127 
 C                     0.74672   0.8196   -0.67783 
 C                    -0.94924   0.72699   1.2773 
 C                    -0.65034   0.3586    2.60576 
 C                     0.45396  -0.60287   2.59074 
 C                     0.81351  -0.86237   1.25316 
 C                    -1.95727   1.63184   0.99296 
 C                    -2.69611   2.19338   2.05119 
 C                    -2.40717   1.81981   3.37382 
 C                    -1.39248   0.90436   3.65449 
 C                     1.15058   1.08808  -3.05874 
 C                     2.10701   2.05655  -2.7647 
 C                     2.38759   2.41219  -1.43476 
 C                     1.69354   1.79196  -0.38353 
 C                    -1.81909  -1.879    -0.38096 
 C                    -2.47806  -2.53961  -1.431 
 C                    -2.16916  -2.20995  -2.76364 
 C                    -1.21656  -1.23793  -3.05809 
 C                     1.15213  -1.23385   3.62167 
 C                     2.18409  -2.11702   3.31136 
 C                     2.54349  -2.37644   1.97506 
 C                     1.84383  -1.7314    0.93633 
 N                    -3.726     3.13303   1.77057 
 N                     3.40032   3.38088  -1.15396 
 N                    -3.46515  -3.53186  -1.15879 
 N                     3.60648  -3.26681   1.69052 
 C                     4.7326   -3.30094   2.56198 
 C                    -3.27363  -4.4213   -0.066 
 C                     3.55389  -4.16939   0.59484 
 C                    -4.7518   -3.43492  -1.75957 
 C                    -3.44688   4.23908   0.92303 
 C                    -4.92758   3.11532   2.52668 
 C                     4.74722   3.12957  -1.50071 
 C                     3.05191   4.55574  -0.42979 
 C                     5.65251   4.18215  -1.69995 
 C                     6.98898   3.93953  -2.025 
 C                     7.44897   2.62845  -2.17883 
 C                     6.55078   1.56986  -1.99315 
 C                     5.22628   1.81209  -1.65115 
 C                    -4.41287   4.72463   0.03374 
 C                    -4.14279   5.80825  -0.80574 
 C                    -2.88181   6.4127   -0.77877 
 C                    -1.91178   5.93771   0.11304 
 C                    -2.19205   4.87245   0.95576 
 C                    -5.36218   4.24841   3.22199 
 C                    -6.55282   4.24129   3.95055 
 C                    -7.31542   3.07787   4.00766 
 C                    -6.90171   1.93055   3.32363 
 C                    -5.72434   1.94223   2.56988 
 C                     3.57407   4.79608   0.84425 
 C                     3.26023   5.95781   1.55111 
 C                     2.40182   6.89375   0.97844 
 C                     1.86743   6.67963  -0.29534 
 C                     2.1901    5.51903  -1.00997 
 C                    -2.1132   -5.22417   0.01453 
 C                    -1.91415  -6.06235   1.11233 
 C                    -2.86822  -6.14777   2.12603 
 C                    -4.03437  -5.38558   2.03873 
 C                    -4.22653  -4.52576   0.95926 
 C                    -5.32955  -2.19601  -2.06178 
 C                    -6.58507  -2.11301  -2.67093 
 C                    -7.29867  -3.27824  -2.96687 
 C                    -6.73318  -4.52343  -2.65414 
 C                    -5.47742  -4.60052  -2.07013 
 C                     2.34236  -4.76404   0.19613 
 C                     2.30563  -5.65788  -0.86402 
 C                     3.47846  -6.00489  -1.54789 
 C                     4.69034  -5.42807  -1.15666 
 C                     4.71868  -4.51072  -0.10334 
 C                     5.55484  -2.15578   2.70549 
 C                     6.65112  -2.19601   3.57423 
 C                     6.95267  -3.36851   4.27307 
 C                     6.165    -4.50666   4.11671 
 C                     5.05668  -4.46137   3.26902 
 H                     2.12479  -1.91224  -0.09614 
 H                    -2.06232  -2.12067   0.64914 
 H                    -2.68757  -2.72385  -3.56733 
 H                    -0.98922  -1.00151  -4.09455 
 H                     0.94338   0.82592  -4.0933 
 H                     2.64826   2.55772  -3.56063 
 H                     0.89358  -1.05319   4.66226 
 H                     2.72136  -2.62089   4.10832 
 H                    -1.18146   0.63307   4.68599 
 H                    -2.98159   2.25937   4.18356 
 H                     1.92305   2.0589    0.64406 
 H                    -2.19535   1.90491  -0.03048 
 O                     3.33137  -6.90573  -2.5715 
 C                     4.48909  -7.28136  -3.29424 
 O                    -8.53468  -3.31428  -3.55282 
 C                    -9.14761  -2.08171  -3.88877 
 O                     8.73596   2.27747  -2.50121 
 O                    -2.49382   7.45945  -1.5792 
 C                    -3.44441   7.98712  -2.48825 
 C                     9.67133   3.31835  -2.71121 
 H                     6.91331   0.55306  -2.1113 
 H                     4.55309   0.97455  -1.50283 
 H                    -5.38742   4.24776  -0.00495 
 H                    -4.91531   6.15245  -1.4843 
 H                     7.65269   4.78531  -2.16705 
 H                     5.31146   5.20703  -1.59889 
 H                    -0.94131   6.42158   0.14484 
 H                    -1.4313    4.51881   1.6437 
 H                     5.66348  -4.05921   0.18167 
 H                     5.61655  -5.66773  -1.66705 
 H                     1.364    -6.10432  -1.16367 
 H                     1.42005  -4.51864   0.7113 
 H                    -6.99407  -1.13404  -2.89441 
 H                    -4.79099  -1.28311  -1.82941 
 H                    -7.29291  -5.42256  -2.89288 
 H                    -5.04921  -5.57191  -1.84292 
 H                    -8.54665  -1.51397  -4.61219 
 H                    -9.31979  -1.45904  -3.00022 
 H                    -10.10822  -2.33658  -4.34061 
 H                    -4.32871   8.37764  -1.96676 
 H                    -3.76546   7.23534  -3.2222 
 H                    -2.94326   8.80616  -3.00821 
 H                     10.61778   2.83027  -2.95338 
 H                     9.8036    3.93507  -1.81106 
 H                     9.3765    3.96839  -3.54686 
 H                     5.23453  -7.76355  -2.64654 
 H                     4.95494  -6.42008  -3.79286 
 H                     4.15531  -7.99575  -4.04984 
 H                    -4.78743  -5.44306   2.81984 
 H                    -5.12475  -3.91885   0.8964 
 H                    -2.70422  -6.81007   2.97125 
 H                    -1.00203  -6.65103   1.14352 
 O                    -1.12804  -5.16609  -0.94619 
 O                     5.20879  -1.07668   1.95315 
 H                     7.28317  -1.32373   3.69649 
 H                     7.81272  -3.38353   4.93721 
 H                     6.39887  -5.41905   4.65751 
 H                     4.42311  -5.33393   3.13868 
 H                     3.67564   6.12202   2.54105 
 H                     4.24299   4.05386   1.27044 
 H                     2.14404   7.80274   1.51527 
 H                     1.21809   7.42839  -0.73501 
 O                     1.74485   5.24366  -2.2652 
 O                    -5.26977   0.88608   1.83968 
 H                    -7.5123    1.03567   3.36544 
 H                    -8.23891   3.05198   4.57965 
 H                    -6.86813   5.13531   4.48076 
 H                    -4.74962   5.14399   3.17908 
 C                     0.9063    6.19027  -2.914 
 C                    -6.00306  -0.32699   1.87062 
 C                    -1.45926  -5.77829  -2.19541 
 C                     6.01361   0.09038   2.0262 
 H                     0.69093   5.76492  -3.89592 
 H                     1.41632   7.15473  -3.04129 
 H                    -0.0343    6.34666  -2.37291 
 H                     7.05415  -0.12014   1.74634 
 H                     5.99141   0.53169   3.03147 
 H                     5.58677   0.79181   1.30768 
 H                    -0.5782   -5.66651  -2.83045 
 H                    -2.3158   -5.28728  -2.66934 
 H                    -1.67974  -6.84542  -2.05839 
 H                    -5.46048  -1.01812   1.22323 
 H                    -7.02237  -0.19359   1.48381 
 H                    -6.05414  -0.74161   2.886 
 
 NAtoms=    161 NQM=    161 NQMF=      0 NMic=      0 NMicF=      0 NTot=    161.
                    Isotopes and Nuclear Properties:
 (Nuclear quadrupole moments (NQMom) in fm**2, nuclear magnetic moments (NMagM)
  in nuclear magnetons)

  Atom         1           2           3           4           5           6           7           8           9          10
 IAtWgt=          12          12          12          12          12          12          12          12          12          12
 AtmWgt=  12.0000000  12.0000000  12.0000000  12.0000000  12.0000000  12.0000000  12.0000000  12.0000000  12.0000000  12.0000000
 NucSpn=           0           0           0           0           0           0           0           0           0           0
 AtZEff=   0.0000000   0.0000000   0.0000000   0.0000000   0.0000000   0.0000000   0.0000000   0.0000000   0.0000000   0.0000000
 NQMom=    0.0000000   0.0000000   0.0000000   0.0000000   0.0000000   0.0000000   0.0000000   0.0000000   0.0000000   0.0000000
 NMagM=    0.0000000   0.0000000   0.0000000   0.0000000   0.0000000   0.0000000   0.0000000   0.0000000   0.0000000   0.0000000

  Atom        11          12          13          14          15          16          17          18          19          20
 IAtWgt=          12          12          12          12          12          12          12          12          12          12
 AtmWgt=  12.0000000  12.0000000  12.0000000  12.0000000  12.0000000  12.0000000  12.0000000  12.0000000  12.0000000  12.0000000
 NucSpn=           0           0           0           0           0           0           0           0           0           0
 AtZEff=   0.0000000   0.0000000   0.0000000   0.0000000   0.0000000   0.0000000   0.0000000   0.0000000   0.0000000   0.0000000
 NQMom=    0.0000000   0.0000000   0.0000000   0.0000000   0.0000000   0.0000000   0.0000000   0.0000000   0.0000000   0.0000000
 NMagM=    0.0000000   0.0000000   0.0000000   0.0000000   0.0000000   0.0000000   0.0000000   0.0000000   0.0000000   0.0000000

  Atom        21          22          23          24          25          26          27          28          29          30
 IAtWgt=          12          12          12          12          12          14          14          14          14          12
 AtmWgt=  12.0000000  12.0000000  12.0000000  12.0000000  12.0000000  14.0030740  14.0030740  14.0030740  14.0030740  12.0000000
 NucSpn=           0           0           0           0           0           2           2           2           2           0
 AtZEff=   0.0000000   0.0000000   0.0000000   0.0000000   0.0000000   0.0000000   0.0000000   0.0000000   0.0000000   0.0000000
 NQMom=    0.0000000   0.0000000   0.0000000   0.0000000   0.0000000   2.0440000   2.0440000   2.0440000   2.0440000   0.0000000
 NMagM=    0.0000000   0.0000000   0.0000000   0.0000000   0.0000000   0.4037610   0.4037610   0.4037610   0.4037610   0.0000000

  Atom        31          32          33          34          35          36          37          38          39          40
 IAtWgt=          12          12          12          12          12          12          12          12          12          12
 AtmWgt=  12.0000000  12.0000000  12.0000000  12.0000000  12.0000000  12.0000000  12.0000000  12.0000000  12.0000000  12.0000000
 NucSpn=           0           0           0           0           0           0           0           0           0           0
 AtZEff=   0.0000000   0.0000000   0.0000000   0.0000000   0.0000000   0.0000000   0.0000000   0.0000000   0.0000000   0.0000000
 NQMom=    0.0000000   0.0000000   0.0000000   0.0000000   0.0000000   0.0000000   0.0000000   0.0000000   0.0000000   0.0000000
 NMagM=    0.0000000   0.0000000   0.0000000   0.0000000   0.0000000   0.0000000   0.0000000   0.0000000   0.0000000   0.0000000

  Atom        41          42          43          44          45          46          47          48          49          50
 IAtWgt=          12          12          12          12          12          12          12          12          12          12
 AtmWgt=  12.0000000  12.0000000  12.0000000  12.0000000  12.0000000  12.0000000  12.0000000  12.0000000  12.0000000  12.0000000
 NucSpn=           0           0           0           0           0           0           0           0           0           0
 AtZEff=   0.0000000   0.0000000   0.0000000   0.0000000   0.0000000   0.0000000   0.0000000   0.0000000   0.0000000   0.0000000
 NQMom=    0.0000000   0.0000000   0.0000000   0.0000000   0.0000000   0.0000000   0.0000000   0.0000000   0.0000000   0.0000000
 NMagM=    0.0000000   0.0000000   0.0000000   0.0000000   0.0000000   0.0000000   0.0000000   0.0000000   0.0000000   0.0000000

  Atom        51          52          53          54          55          56          57          58          59          60
 IAtWgt=          12          12          12          12          12          12          12          12          12          12
 AtmWgt=  12.0000000  12.0000000  12.0000000  12.0000000  12.0000000  12.0000000  12.0000000  12.0000000  12.0000000  12.0000000
 NucSpn=           0           0           0           0           0           0           0           0           0           0
 AtZEff=   0.0000000   0.0000000   0.0000000   0.0000000   0.0000000   0.0000000   0.0000000   0.0000000   0.0000000   0.0000000
 NQMom=    0.0000000   0.0000000   0.0000000   0.0000000   0.0000000   0.0000000   0.0000000   0.0000000   0.0000000   0.0000000
 NMagM=    0.0000000   0.0000000   0.0000000   0.0000000   0.0000000   0.0000000   0.0000000   0.0000000   0.0000000   0.0000000

  Atom        61          62          63          64          65          66          67          68          69          70
 IAtWgt=          12          12          12          12          12          12          12          12          12          12
 AtmWgt=  12.0000000  12.0000000  12.0000000  12.0000000  12.0000000  12.0000000  12.0000000  12.0000000  12.0000000  12.0000000
 NucSpn=           0           0           0           0           0           0           0           0           0           0
 AtZEff=   0.0000000   0.0000000   0.0000000   0.0000000   0.0000000   0.0000000   0.0000000   0.0000000   0.0000000   0.0000000
 NQMom=    0.0000000   0.0000000   0.0000000   0.0000000   0.0000000   0.0000000   0.0000000   0.0000000   0.0000000   0.0000000
 NMagM=    0.0000000   0.0000000   0.0000000   0.0000000   0.0000000   0.0000000   0.0000000   0.0000000   0.0000000   0.0000000

  Atom        71          72          73          74          75          76          77          78          79          80
 IAtWgt=          12          12          12          12          12          12          12           1           1           1
 AtmWgt=  12.0000000  12.0000000  12.0000000  12.0000000  12.0000000  12.0000000  12.0000000   1.0078250   1.0078250   1.0078250
 NucSpn=           0           0           0           0           0           0           0           1           1           1
 AtZEff=   0.0000000   0.0000000   0.0000000   0.0000000   0.0000000   0.0000000   0.0000000   0.0000000   0.0000000   0.0000000
 NQMom=    0.0000000   0.0000000   0.0000000   0.0000000   0.0000000   0.0000000   0.0000000   0.0000000   0.0000000   0.0000000
 NMagM=    0.0000000   0.0000000   0.0000000   0.0000000   0.0000000   0.0000000   0.0000000   2.7928460   2.7928460   2.7928460

  Atom        81          82          83          84          85          86          87          88          89          90
 IAtWgt=           1           1           1           1           1           1           1           1           1          16
 AtmWgt=   1.0078250   1.0078250   1.0078250   1.0078250   1.0078250   1.0078250   1.0078250   1.0078250   1.0078250  15.9949146
 NucSpn=           1           1           1           1           1           1           1           1           1           0
 AtZEff=   0.0000000   0.0000000   0.0000000   0.0000000   0.0000000   0.0000000   0.0000000   0.0000000   0.0000000   0.0000000
 NQMom=    0.0000000   0.0000000   0.0000000   0.0000000   0.0000000   0.0000000   0.0000000   0.0000000   0.0000000   0.0000000
 NMagM=    2.7928460   2.7928460   2.7928460   2.7928460   2.7928460   2.7928460   2.7928460   2.7928460   2.7928460   0.0000000

  Atom        91          92          93          94          95          96          97          98          99         100
 IAtWgt=          12          16          12          16          16          12          12           1           1           1
 AtmWgt=  12.0000000  15.9949146  12.0000000  15.9949146  15.9949146  12.0000000  12.0000000   1.0078250   1.0078250   1.0078250
 NucSpn=           0           0           0           0           0           0           0           1           1           1
 AtZEff=   0.0000000   0.0000000   0.0000000   0.0000000   0.0000000   0.0000000   0.0000000   0.0000000   0.0000000   0.0000000
 NQMom=    0.0000000   0.0000000   0.0000000   0.0000000   0.0000000   0.0000000   0.0000000   0.0000000   0.0000000   0.0000000
 NMagM=    0.0000000   0.0000000   0.0000000   0.0000000   0.0000000   0.0000000   0.0000000   2.7928460   2.7928460   2.7928460

  Atom       101         102         103         104         105         106         107         108         109         110
 IAtWgt=           1           1           1           1           1           1           1           1           1           1
 AtmWgt=   1.0078250   1.0078250   1.0078250   1.0078250   1.0078250   1.0078250   1.0078250   1.0078250   1.0078250   1.0078250
 NucSpn=           1           1           1           1           1           1           1           1           1           1
 AtZEff=   0.0000000   0.0000000   0.0000000   0.0000000   0.0000000   0.0000000   0.0000000   0.0000000   0.0000000   0.0000000
 NQMom=    0.0000000   0.0000000   0.0000000   0.0000000   0.0000000   0.0000000   0.0000000   0.0000000   0.0000000   0.0000000
 NMagM=    2.7928460   2.7928460   2.7928460   2.7928460   2.7928460   2.7928460   2.7928460   2.7928460   2.7928460   2.7928460

  Atom       111         112         113         114         115         116         117         118         119         120
 IAtWgt=           1           1           1           1           1           1           1           1           1           1
 AtmWgt=   1.0078250   1.0078250   1.0078250   1.0078250   1.0078250   1.0078250   1.0078250   1.0078250   1.0078250   1.0078250
 NucSpn=           1           1           1           1           1           1           1           1           1           1
 AtZEff=   0.0000000   0.0000000   0.0000000   0.0000000   0.0000000   0.0000000   0.0000000   0.0000000   0.0000000   0.0000000
 NQMom=    0.0000000   0.0000000   0.0000000   0.0000000   0.0000000   0.0000000   0.0000000   0.0000000   0.0000000   0.0000000
 NMagM=    2.7928460   2.7928460   2.7928460   2.7928460   2.7928460   2.7928460   2.7928460   2.7928460   2.7928460   2.7928460

  Atom       121         122         123         124         125         126         127         128         129         130
 IAtWgt=           1           1           1           1           1           1           1           1           1          16
 AtmWgt=   1.0078250   1.0078250   1.0078250   1.0078250   1.0078250   1.0078250   1.0078250   1.0078250   1.0078250  15.9949146
 NucSpn=           1           1           1           1           1           1           1           1           1           0
 AtZEff=   0.0000000   0.0000000   0.0000000   0.0000000   0.0000000   0.0000000   0.0000000   0.0000000   0.0000000   0.0000000
 NQMom=    0.0000000   0.0000000   0.0000000   0.0000000   0.0000000   0.0000000   0.0000000   0.0000000   0.0000000   0.0000000
 NMagM=    2.7928460   2.7928460   2.7928460   2.7928460   2.7928460   2.7928460   2.7928460   2.7928460   2.7928460   0.0000000

  Atom       131         132         133         134         135         136         137         138         139         140
 IAtWgt=          16           1           1           1           1           1           1           1           1          16
 AtmWgt=  15.9949146   1.0078250   1.0078250   1.0078250   1.0078250   1.0078250   1.0078250   1.0078250   1.0078250  15.9949146
 NucSpn=           0           1           1           1           1           1           1           1           1           0
 AtZEff=   0.0000000   0.0000000   0.0000000   0.0000000   0.0000000   0.0000000   0.0000000   0.0000000   0.0000000   0.0000000
 NQMom=    0.0000000   0.0000000   0.0000000   0.0000000   0.0000000   0.0000000   0.0000000   0.0000000   0.0000000   0.0000000
 NMagM=    0.0000000   2.7928460   2.7928460   2.7928460   2.7928460   2.7928460   2.7928460   2.7928460   2.7928460   0.0000000

  Atom       141         142         143         144         145         146         147         148         149         150
 IAtWgt=          16           1           1           1           1          12          12          12          12           1
 AtmWgt=  15.9949146   1.0078250   1.0078250   1.0078250   1.0078250  12.0000000  12.0000000  12.0000000  12.0000000   1.0078250
 NucSpn=           0           1           1           1           1           0           0           0           0           1
 AtZEff=   0.0000000   0.0000000   0.0000000   0.0000000   0.0000000   0.0000000   0.0000000   0.0000000   0.0000000   0.0000000
 NQMom=    0.0000000   0.0000000   0.0000000   0.0000000   0.0000000   0.0000000   0.0000000   0.0000000   0.0000000   0.0000000
 NMagM=    0.0000000   2.7928460   2.7928460   2.7928460   2.7928460   0.0000000   0.0000000   0.0000000   0.0000000   2.7928460

  Atom       151         152         153         154         155         156         157         158         159         160
 IAtWgt=           1           1           1           1           1           1           1           1           1           1
 AtmWgt=   1.0078250   1.0078250   1.0078250   1.0078250   1.0078250   1.0078250   1.0078250   1.0078250   1.0078250   1.0078250
 NucSpn=           1           1           1           1           1           1           1           1           1           1
 AtZEff=   0.0000000   0.0000000   0.0000000   0.0000000   0.0000000   0.0000000   0.0000000   0.0000000   0.0000000   0.0000000
 NQMom=    0.0000000   0.0000000   0.0000000   0.0000000   0.0000000   0.0000000   0.0000000   0.0000000   0.0000000   0.0000000
 NMagM=    2.7928460   2.7928460   2.7928460   2.7928460   2.7928460   2.7928460   2.7928460   2.7928460   2.7928460   2.7928460

  Atom       161
 IAtWgt=           1
 AtmWgt=   1.0078250
 NucSpn=           1
 AtZEff=   0.0000000
 NQMom=    0.0000000
 NMagM=    2.7928460
 Leave Link  101 at Tue Jan 27 20:56:16 2015, MaxMem= 2147483648 cpu:       3.4
 (Enter /opt/g09/l202.exe)
 Stoichiometry    C81H68N4O8(1+,2)
 Framework group  C1[X(C81H68N4O8)]
 Deg. of freedom   477
 Full point group                 C1      NOp   1
 Largest Abelian subgroup         C1      NOp   1
 Largest concise Abelian subgroup C1      NOp   1
                         Standard orientation:                         
 ---------------------------------------------------------------------
 Center     Atomic      Atomic             Coordinates (Angstroms)
 Number     Number       Type             X           Y           Z
 ---------------------------------------------------------------------
      1          6           0       -0.062812   -0.045654    0.293071
      2          6           0       -0.871139   -0.911931   -0.680626
      3          6           0       -0.557952   -0.584575   -2.012705
      4          6           0        0.465023    0.465280   -2.011271
      5          6           0        0.746724    0.819596   -0.677833
      6          6           0       -0.949237    0.726992    1.277296
      7          6           0       -0.650342    0.358602    2.605755
      8          6           0        0.453962   -0.602872    2.590736
      9          6           0        0.813509   -0.862366    1.253160
     10          6           0       -1.957273    1.631840    0.992963
     11          6           0       -2.696110    2.193375    2.051195
     12          6           0       -2.407169    1.819806    3.373820
     13          6           0       -1.392483    0.904361    3.654489
     14          6           0        1.150577    1.088079   -3.058743
     15          6           0        2.107010    2.056551   -2.764696
     16          6           0        2.387585    2.412185   -1.434762
     17          6           0        1.693543    1.791961   -0.383528
     18          6           0       -1.819085   -1.878995   -0.380956
     19          6           0       -2.478064   -2.539606   -1.431000
     20          6           0       -2.169161   -2.209945   -2.763643
     21          6           0       -1.216557   -1.237925   -3.058086
     22          6           0        1.152130   -1.233848    3.621674
     23          6           0        2.184094   -2.117019    3.311355
     24          6           0        2.543490   -2.376439    1.975058
     25          6           0        1.843827   -1.731400    0.936327
     26          7           0       -3.725996    3.133028    1.770568
     27          7           0        3.400318    3.380876   -1.153960
     28          7           0       -3.465152   -3.531863   -1.158792
     29          7           0        3.606480   -3.266812    1.690515
     30          6           0        4.732602   -3.300942    2.561979
     31          6           0       -3.273630   -4.421303   -0.066004
     32          6           0        3.553890   -4.169387    0.594835
     33          6           0       -4.751798   -3.434922   -1.759574
     34          6           0       -3.446883    4.239082    0.923033
     35          6           0       -4.927578    3.115322    2.526683
     36          6           0        4.747216    3.129569   -1.500709
     37          6           0        3.051912    4.555738   -0.429788
     38          6           0        5.652512    4.182146   -1.699954
     39          6           0        6.988984    3.939534   -2.025002
     40          6           0        7.448965    2.628449   -2.178829
     41          6           0        6.550783    1.569860   -1.993149
     42          6           0        5.226284    1.812087   -1.651153
     43          6           0       -4.412869    4.724633    0.033738
     44          6           0       -4.142794    5.808250   -0.805744
     45          6           0       -2.881810    6.412701   -0.778767
     46          6           0       -1.911784    5.937706    0.113036
     47          6           0       -2.192052    4.872448    0.955756
     48          6           0       -5.362180    4.248410    3.221989
     49          6           0       -6.552821    4.241293    3.950547
     50          6           0       -7.315419    3.077869    4.007656
     51          6           0       -6.901712    1.930551    3.323631
     52          6           0       -5.724342    1.942228    2.569882
     53          6           0        3.574065    4.796075    0.844251
     54          6           0        3.260227    5.957814    1.551113
     55          6           0        2.401816    6.893750    0.978442
     56          6           0        1.867430    6.679625   -0.295335
     57          6           0        2.190103    5.519030   -1.009974
     58          6           0       -2.113200   -5.224172    0.014530
     59          6           0       -1.914148   -6.062347    1.112330
     60          6           0       -2.868220   -6.147767    2.126029
     61          6           0       -4.034373   -5.385575    2.038727
     62          6           0       -4.226525   -4.525764    0.959259
     63          6           0       -5.329554   -2.196014   -2.061777
     64          6           0       -6.585074   -2.113015   -2.670928
     65          6           0       -7.298670   -3.278238   -2.966866
     66          6           0       -6.733176   -4.523425   -2.654143
     67          6           0       -5.477417   -4.600522   -2.070128
     68          6           0        2.342360   -4.764041    0.196133
     69          6           0        2.305629   -5.657884   -0.864024
     70          6           0        3.478458   -6.004888   -1.547892
     71          6           0        4.690339   -5.428065   -1.156656
     72          6           0        4.718678   -4.510721   -0.103342
     73          6           0        5.554835   -2.155778    2.705493
     74          6           0        6.651117   -2.196007    3.574234
     75          6           0        6.952671   -3.368507    4.273072
     76          6           0        6.165004   -4.506660    4.116713
     77          6           0        5.056685   -4.461372    3.269015
     78          1           0        2.124793   -1.912242   -0.096137
     79          1           0       -2.062322   -2.120670    0.649138
     80          1           0       -2.687569   -2.723849   -3.567331
     81          1           0       -0.989215   -1.001515   -4.094555
     82          1           0        0.943378    0.825919   -4.093304
     83          1           0        2.648262    2.557722   -3.560629
     84          1           0        0.893577   -1.053189    4.662258
     85          1           0        2.721357   -2.620894    4.108316
     86          1           0       -1.181461    0.633069    4.685994
     87          1           0       -2.981588    2.259375    4.183558
     88          1           0        1.923053    2.058895    0.644061
     89          1           0       -2.195350    1.904905   -0.030483
     90          8           0        3.331374   -6.905730   -2.571499
     91          6           0        4.489093   -7.281364   -3.294239
     92          8           0       -8.534679   -3.314281   -3.552823
     93          6           0       -9.147613   -2.081707   -3.888772
     94          8           0        8.735962    2.277473   -2.501205
     95          8           0       -2.493815    7.459454   -1.579200
     96          6           0       -3.444410    7.987115   -2.488250
     97          6           0        9.671334    3.318351   -2.711214
     98          1           0        6.913309    0.553056   -2.111295
     99          1           0        4.553095    0.974548   -1.502828
    100          1           0       -5.387424    4.247756   -0.004954
    101          1           0       -4.915308    6.152454   -1.484301
    102          1           0        7.652693    4.785312   -2.167050
    103          1           0        5.311459    5.207026   -1.598887
    104          1           0       -0.941312    6.421577    0.144835
    105          1           0       -1.431298    4.518807    1.643702
    106          1           0        5.663484   -4.059214    0.181671
    107          1           0        5.616547   -5.667728   -1.667050
    108          1           0        1.364001   -6.104321   -1.163667
    109          1           0        1.420049   -4.518636    0.711299
    110          1           0       -6.994066   -1.134045   -2.894406
    111          1           0       -4.790991   -1.283109   -1.829411
    112          1           0       -7.292911   -5.422555   -2.892880
    113          1           0       -5.049206   -5.571906   -1.842924
    114          1           0       -8.546652   -1.513970   -4.612190
    115          1           0       -9.319792   -1.459041   -3.000218
    116          1           0      -10.108224   -2.336578   -4.340615
    117          1           0       -4.328708    8.377642   -1.966757
    118          1           0       -3.765456    7.235335   -3.222197
    119          1           0       -2.943262    8.806159   -3.008213
    120          1           0       10.617785    2.830271   -2.953384
    121          1           0        9.803596    3.935071   -1.811062
    122          1           0        9.376501    3.968390   -3.546862
    123          1           0        5.234533   -7.763548   -2.646542
    124          1           0        4.954944   -6.420078   -3.792863
    125          1           0        4.155305   -7.995752   -4.049840
    126          1           0       -4.787432   -5.443057    2.819837
    127          1           0       -5.124748   -3.918851    0.896402
    128          1           0       -2.704218   -6.810070    2.971249
    129          1           0       -1.002029   -6.651030    1.143522
    130          8           0       -1.128044   -5.166092   -0.946187
    131          8           0        5.208793   -1.076679    1.953150
    132          1           0        7.283168   -1.323734    3.696491
    133          1           0        7.812719   -3.383532    4.937211
    134          1           0        6.398872   -5.419052    4.657508
    135          1           0        4.423106   -5.333928    3.138683
    136          1           0        3.675637    6.122023    2.541046
    137          1           0        4.242990    4.053863    1.270443
    138          1           0        2.144037    7.802735    1.515266
    139          1           0        1.218089    7.428391   -0.735010
    140          8           0        1.744848    5.243656   -2.265205
    141          8           0       -5.269765    0.886080    1.839684
    142          1           0       -7.512302    1.035670    3.365441
    143          1           0       -8.238906    3.051979    4.579651
    144          1           0       -6.868129    5.135311    4.480757
    145          1           0       -4.749618    5.143993    3.179081
    146          6           0        0.906295    6.190265   -2.913999
    147          6           0       -6.003061   -0.326988    1.870621
    148          6           0       -1.459261   -5.778287   -2.195407
    149          6           0        6.013606    0.090378    2.026204
    150          1           0        0.690925    5.764918   -3.895918
    151          1           0        1.416317    7.154725   -3.041293
    152          1           0       -0.034302    6.346659   -2.372905
    153          1           0        7.054150   -0.120141    1.746341
    154          1           0        5.991415    0.531691    3.031473
    155          1           0        5.586771    0.791810    1.307684
    156          1           0       -0.578203   -5.666509   -2.830452
    157          1           0       -2.315801   -5.287275   -2.669343
    158          1           0       -1.679740   -6.845421   -2.058389
    159          1           0       -5.460479   -1.018116    1.223232
    160          1           0       -7.022371   -0.193591    1.483805
    161          1           0       -6.054144   -0.741607    2.886001
 ---------------------------------------------------------------------
 Rotational constants (GHZ):      0.0195326      0.0166684      0.0115188
 Leave Link  202 at Tue Jan 27 20:56:16 2015, MaxMem= 2147483648 cpu:       0.1
 (Enter /opt/g09/l301.exe)
 Standard basis: CC-pVDZ (5D, 7F)
 Ernie: Thresh=  0.10000D-02 Tol=  0.10000D-05 Strict=F.
 Ernie:  186 primitive shells out of 2386 were deleted.
 There are  1642 symmetry adapted basis functions of A   symmetry.
 Integral buffers will be    131072 words long.
 Raffenetti 2 integral format.
 Two-electron integral symmetry is turned on.
  1642 basis functions,  3545 primitive gaussians,  1735 cartesian basis functions
   323 alpha electrons      322 beta electrons
       nuclear repulsion energy     16972.8364731116 Hartrees.
 IExCor=  402 DFT=T Ex+Corr=B3LYP ExCW=0 ScaHFX=  0.200000
 ScaDFX=  0.800000  0.720000  1.000000  0.810000 ScalE2=  1.000000  1.000000
 IRadAn=      0 IRanWt=     -1 IRanGd=            0 ICorTp=0
 NAtoms=  161 NActive=  161 NUniq=  161 SFac= 7.50D-01 NAtFMM=   80 NAOKFM=T Big=T
 Leave Link  301 at Tue Jan 27 20:56:16 2015, MaxMem= 2147483648 cpu:       2.3
 (Enter /opt/g09/l302.exe)
 NPDir=0 NMtPBC=     1 NCelOv=     1 NCel=       1 NClECP=     1 NCelD=      1
         NCelK=      1 NCelE2=     1 NClLst=     1 CellRange=     0.0.
 One-electron integrals computed using PRISM.
 NBasis=  1642 RedAO= T  NBF=  1642
 NBsUse=  1642 1.00D-06 NBFU=  1642
 Precomputing XC quadrature grid using
 IXCGrd= 2 IRadAn=           0 IRanWt=          -1 IRanGd=           0 AccXCQ= 1.00D-10.
 NRdTot=   10523 NPtTot=     1348232 NUsed=     1423999 NTot=     1424031
 NSgBfM=  1250  1268  1288  1307  1323 NAtAll=   161   161.
 Leave Link  302 at Tue Jan 27 20:56:37 2015, MaxMem= 2147483648 cpu:     506.5
 (Enter /opt/g09/l303.exe)
 DipDrv:  MaxL=1.
 Leave Link  303 at Tue Jan 27 20:56:39 2015, MaxMem= 2147483648 cpu:      39.1
 (Enter /opt/g09/l401.exe)
 Harris functional with IExCor=  402 diagonalized for initial guess.
 ExpMin= 1.22D-01 ExpMax= 1.17D+04 ExpMxC= 4.01D+02 IAcc=1 IRadAn=         1 AccDes= 0.00D+00
 HarFok:  IExCor=  402 AccDes= 0.00D+00 IRadAn=         1 IDoV= 1
 ScaDFX=  1.000000  1.000000  1.000000  1.000000
 FoFCou: FMM=F IPFlag=           0 FMFlag=      100000 FMFlg1=        2001
         NFxFlg=           0 DoJE=T BraDBF=F KetDBF=T FulRan=T
         Omega=  0.000000  0.000000  1.000000  0.000000  0.000000 ICntrl=     500 IOpCl=  0
         NMat0=    1 NMatS0=    1 NMatT0=    0 NMatD0=    1 NMtDS0=    0 NMtDT0=    0
         I1Cent=           4 NGrid=           0.
 Petite list used in FoFCou.
 Harris En= -3948.39971099109    
 Initial guess orbital symmetries:
 Alpha Orbitals:
       Occupied  (A) (A) (A) (A) (A) (A) (A) (A) (A) (A) (A) (A)
                 (A) (A) (A) (A) (A) (A) (A) (A) (A) (A) (A) (A)
                 (A) (A) (A) (A) (A) (A) (A) (A) (A) (A) (A) (A)
                 (A) (A) (A) (A) (A) (A) (A) (A) (A) (A) (A) (A)
                 (A) (A) (A) (A) (A) (A) (A) (A) (A) (A) (A) (A)
                 (A) (A) (A) (A) (A) (A) (A) (A) (A) (A) (A) (A)
                 (A) (A) (A) (A) (A) (A) (A) (A) (A) (A) (A) (A)
                 (A) (A) (A) (A) (A) (A) (A) (A) (A) (A) (A) (A)
                 (A) (A) (A) (A) (A) (A) (A) (A) (A) (A) (A) (A)
                 (A) (A) (A) (A) (A) (A) (A) (A) (A) (A) (A) (A)
                 (A) (A) (A) (A) (A) (A) (A) (A) (A) (A) (A) (A)
                 (A) (A) (A) (A) (A) (A) (A) (A) (A) (A) (A) (A)
                 (A) (A) (A) (A) (A) (A) (A) (A) (A) (A) (A) (A)
                 (A) (A) (A) (A) (A) (A) (A) (A) (A) (A) (A) (A)
                 (A) (A) (A) (A) (A) (A) (A) (A) (A) (A) (A) (A)
                 (A) (A) (A) (A) (A) (A) (A) (A) (A) (A) (A) (A)
                 (A) (A) (A) (A) (A) (A) (A) (A) (A) (A) (A) (A)
                 (A) (A) (A) (A) (A) (A) (A) (A) (A) (A) (A) (A)
                 (A) (A) (A) (A) (A) (A) (A) (A) (A) (A) (A) (A)
                 (A) (A) (A) (A) (A) (A) (A) (A) (A) (A) (A) (A)
                 (A) (A) (A) (A) (A) (A) (A) (A) (A) (A) (A) (A)
                 (A) (A) (A) (A) (A) (A) (A) (A) (A) (A) (A) (A)
                 (A) (A) (A) (A) (A) (A) (A) (A) (A) (A) (A) (A)
                 (A) (A) (A) (A) (A) (A) (A) (A) (A) (A) (A) (A)
                 (A) (A) (A) (A) (A) (A) (A) (A) (A) (A) (A) (A)
                 (A) (A) (A) (A) (A) (A) (A) (A) (A) (A) (A) (A)
                 (A) (A) (A) (A) (A) (A) (A) (A) (A) (A) (A)
       Virtual   (A) (A) (A) (A) (A) (A) (A) (A) (A) (A) (A) (A)
                 (A) (A) (A) (A) (A) (A) (A) (A) (A) (A) (A) (A)
                 (A) (A) (A) (A) (A) (A) (A) (A) (A) (A) (A) (A)
                 (A) (A) (A) (A) (A) (A) (A) (A) (A) (A) (A) (A)
                 (A) (A) (A) (A) (A) (A) (A) (A) (A) (A) (A) (A)
                 (A) (A) (A) (A) (A) (A) (A) (A) (A) (A) (A) (A)
                 (A) (A) (A) (A) (A) (A) (A) (A) (A) (A) (A) (A)
                 (A) (A) (A) (A) (A) (A) (A) (A) (A) (A) (A) (A)
                 (A) (A) (A) (A) (A) (A) (A) (A) (A) (A) (A) (A)
                 (A) (A) (A) (A) (A) (A) (A) (A) (A) (A) (A) (A)
                 (A) (A) (A) (A) (A) (A) (A) (A) (A) (A) (A) (A)
                 (A) (A) (A) (A) (A) (A) (A) (A) (A) (A) (A) (A)
                 (A) (A) (A) (A) (A) (A) (A) (A) (A) (A) (A) (A)
                 (A) (A) (A) (A) (A) (A) (A) (A) (A) (A) (A) (A)
                 (A) (A) (A) (A) (A) (A) (A) (A) (A) (A) (A) (A)
                 (A) (A) (A) (A) (A) (A) (A) (A) (A) (A) (A) (A)
                 (A) (A) (A) (A) (A) (A) (A) (A) (A) (A) (A) (A)
                 (A) (A) (A) (A) (A) (A) (A) (A) (A) (A) (A) (A)
                 (A) (A) (A) (A) (A) (A) (A) (A) (A) (A) (A) (A)
                 (A) (A) (A) (A) (A) (A) (A) (A) (A) (A) (A) (A)
                 (A) (A) (A) (A) (A) (A) (A) (A) (A) (A) (A) (A)
                 (A) (A) (A) (A) (A) (A) (A) (A) (A) (A) (A) (A)
                 (A) (A) (A) (A) (A) (A) (A) (A) (A) (A) (A) (A)
                 (A) (A) (A) (A) (A) (A) (A) (A) (A) (A) (A) (A)
                 (A) (A) (A) (A) (A) (A) (A) (A) (A) (A) (A) (A)
                 (A) (A) (A) (A) (A) (A) (A) (A) (A) (A) (A) (A)
                 (A) (A) (A) (A) (A) (A) (A) (A) (A) (A) (A) (A)
                 (A) (A) (A) (A) (A) (A) (A) (A) (A) (A) (A) (A)
                 (A) (A) (A) (A) (A) (A) (A) (A) (A) (A) (A) (A)
                 (A) (A) (A) (A) (A) (A) (A) (A) (A) (A) (A) (A)
                 (A) (A) (A) (A) (A) (A) (A) (A) (A) (A) (A) (A)
                 (A) (A) (A) (A) (A) (A) (A) (A) (A) (A) (A) (A)
                 (A) (A) (A) (A) (A) (A) (A) (A) (A) (A) (A) (A)
                 (A) (A) (A) (A) (A) (A) (A) (A) (A) (A) (A) (A)
                 (A) (A) (A) (A) (A) (A) (A) (A) (A) (A) (A) (A)
                 (A) (A) (A) (A) (A) (A) (A) (A) (A) (A) (A) (A)
                 (A) (A) (A) (A) (A) (A) (A) (A) (A) (A) (A) (A)
                 (A) (A) (A) (A) (A) (A) (A) (A) (A) (A) (A) (A)
                 (A) (A) (A) (A) (A) (A) (A) (A) (A) (A) (A) (A)
                 (A) (A) (A) (A) (A) (A) (A) (A) (A) (A) (A) (A)
                 (A) (A) (A) (A) (A) (A) (A) (A) (A) (A) (A) (A)
                 (A) (A) (A) (A) (A) (A) (A) (A) (A) (A) (A) (A)
                 (A) (A) (A) (A) (A) (A) (A) (A) (A) (A) (A) (A)
                 (A) (A) (A) (A) (A) (A) (A) (A) (A) (A) (A) (A)
                 (A) (A) (A) (A) (A) (A) (A) (A) (A) (A) (A) (A)
                 (A) (A) (A) (A) (A) (A) (A) (A) (A) (A) (A) (A)
                 (A) (A) (A) (A) (A) (A) (A) (A) (A) (A) (A) (A)
                 (A) (A) (A) (A) (A) (A) (A) (A) (A) (A) (A) (A)
                 (A) (A) (A) (A) (A) (A) (A) (A) (A) (A) (A) (A)
                 (A) (A) (A) (A) (A) (A) (A) (A) (A) (A) (A) (A)
                 (A) (A) (A) (A) (A) (A) (A) (A) (A) (A) (A) (A)
                 (A) (A) (A) (A) (A) (A) (A) (A) (A) (A) (A) (A)
                 (A) (A) (A) (A) (A) (A) (A) (A) (A) (A) (A) (A)
                 (A) (A) (A) (A) (A) (A) (A) (A) (A) (A) (A) (A)
                 (A) (A) (A) (A) (A) (A) (A) (A) (A) (A) (A) (A)
                 (A) (A) (A) (A) (A) (A) (A) (A) (A) (A) (A) (A)
                 (A) (A) (A) (A) (A) (A) (A) (A) (A) (A) (A) (A)
                 (A) (A) (A) (A) (A) (A) (A) (A) (A) (A) (A) (A)
                 (A) (A) (A) (A) (A) (A) (A) (A) (A) (A) (A) (A)
                 (A) (A) (A) (A) (A) (A) (A) (A) (A) (A) (A) (A)
                 (A) (A) (A) (A) (A) (A) (A) (A) (A) (A) (A) (A)
                 (A) (A) (A) (A) (A) (A) (A) (A) (A) (A) (A) (A)
                 (A) (A) (A) (A) (A) (A) (A) (A) (A) (A) (A) (A)
                 (A) (A) (A) (A) (A) (A) (A) (A) (A) (A) (A) (A)
                 (A) (A) (A) (A) (A) (A) (A) (A) (A) (A) (A) (A)
                 (A) (A) (A) (A) (A) (A) (A) (A) (A) (A) (A) (A)
                 (A) (A) (A) (A) (A) (A) (A) (A) (A) (A) (A) (A)
                 (A) (A) (A) (A) (A) (A) (A) (A) (A) (A) (A) (A)
                 (A) (A) (A) (A) (A) (A) (A) (A) (A) (A) (A) (A)
                 (A) (A) (A) (A) (A) (A) (A) (A) (A) (A) (A) (A)
                 (A) (A) (A) (A) (A) (A) (A) (A) (A) (A) (A) (A)
                 (A) (A) (A) (A) (A) (A) (A) (A) (A) (A) (A) (A)
                 (A) (A) (A) (A) (A) (A) (A) (A) (A) (A) (A) (A)
                 (A) (A) (A) (A) (A) (A) (A) (A) (A) (A) (A) (A)
                 (A) (A) (A) (A) (A) (A) (A) (A) (A) (A) (A) (A)
                 (A) (A) (A) (A) (A) (A) (A) (A) (A) (A) (A) (A)
                 (A) (A) (A) (A) (A) (A) (A) (A) (A) (A) (A) (A)
                 (A) (A) (A) (A) (A) (A) (A) (A) (A) (A) (A) (A)
                 (A) (A) (A) (A) (A) (A) (A) (A) (A) (A) (A) (A)
                 (A) (A) (A) (A) (A) (A) (A) (A) (A) (A) (A) (A)
                 (A) (A) (A) (A) (A) (A) (A) (A) (A) (A) (A) (A)
                 (A) (A) (A) (A) (A) (A) (A) (A) (A) (A) (A) (A)
                 (A) (A) (A) (A) (A) (A) (A) (A) (A) (A) (A) (A)
                 (A) (A) (A) (A) (A) (A) (A) (A) (A) (A) (A) (A)
                 (A) (A) (A) (A) (A) (A) (A) (A) (A) (A) (A) (A)
                 (A) (A) (A) (A) (A) (A) (A) (A) (A) (A) (A) (A)
                 (A) (A) (A) (A) (A) (A) (A) (A) (A) (A) (A) (A)
                 (A) (A) (A) (A) (A) (A) (A) (A) (A) (A) (A) (A)
                 (A) (A) (A) (A) (A) (A) (A) (A) (A) (A) (A) (A)
                 (A) (A) (A) (A) (A) (A) (A) (A) (A) (A) (A) (A)
                 (A) (A) (A) (A) (A) (A) (A) (A) (A) (A) (A) (A)
                 (A) (A) (A) (A) (A) (A) (A) (A) (A) (A) (A) (A)
                 (A) (A) (A) (A) (A) (A) (A) (A) (A) (A) (A) (A)
                 (A) (A) (A) (A) (A) (A) (A) (A) (A) (A) (A) (A)
                 (A) (A) (A) (A) (A) (A) (A) (A) (A) (A) (A) (A)
                 (A) (A) (A) (A) (A) (A) (A) (A) (A) (A) (A) (A)
                 (A) (A) (A) (A) (A) (A) (A) (A) (A) (A) (A) (A)
                 (A) (A) (A) (A) (A) (A) (A) (A) (A) (A) (A) (A)
                 (A) (A) (A) (A) (A) (A) (A) (A) (A) (A) (A) (A)
                 (A) (A) (A) (A) (A) (A) (A) (A) (A) (A) (A) (A)
                 (A) (A) (A) (A) (A) (A) (A) (A) (A) (A) (A) (A)
                 (A) (A) (A) (A) (A) (A) (A) (A) (A) (A) (A) (A)
                 (A) (A) (A) (A) (A) (A) (A) (A) (A) (A) (A) (A)
                 (A) (A) (A) (A) (A) (A) (A) (A) (A) (A) (A) (A)
                 (A) (A) (A) (A) (A) (A) (A) (A) (A) (A) (A) (A)
                 (A) (A) (A) (A) (A) (A) (A) (A) (A) (A) (A) (A)
                 (A) (A) (A) (A) (A) (A) (A) (A) (A) (A) (A) (A)
                 (A) (A) (A) (A) (A) (A) (A) (A) (A) (A) (A) (A)
                 (A) (A) (A) (A) (A) (A) (A) (A) (A) (A) (A) (A)
                 (A) (A) (A) (A) (A) (A) (A) (A) (A) (A) (A)
 Beta  Orbitals:
       Occupied  (A) (A) (A) (A) (A) (A) (A) (A) (A) (A) (A) (A)
                 (A) (A) (A) (A) (A) (A) (A) (A) (A) (A) (A) (A)
                 (A) (A) (A) (A) (A) (A) (A) (A) (A) (A) (A) (A)
                 (A) (A) (A) (A) (A) (A) (A) (A) (A) (A) (A) (A)
                 (A) (A) (A) (A) (A) (A) (A) (A) (A) (A) (A) (A)
                 (A) (A) (A) (A) (A) (A) (A) (A) (A) (A) (A) (A)
                 (A) (A) (A) (A) (A) (A) (A) (A) (A) (A) (A) (A)
                 (A) (A) (A) (A) (A) (A) (A) (A) (A) (A) (A) (A)
                 (A) (A) (A) (A) (A) (A) (A) (A) (A) (A) (A) (A)
                 (A) (A) (A) (A) (A) (A) (A) (A) (A) (A) (A) (A)
                 (A) (A) (A) (A) (A) (A) (A) (A) (A) (A) (A) (A)
                 (A) (A) (A) (A) (A) (A) (A) (A) (A) (A) (A) (A)
                 (A) (A) (A) (A) (A) (A) (A) (A) (A) (A) (A) (A)
                 (A) (A) (A) (A) (A) (A) (A) (A) (A) (A) (A) (A)
                 (A) (A) (A) (A) (A) (A) (A) (A) (A) (A) (A) (A)
                 (A) (A) (A) (A) (A) (A) (A) (A) (A) (A) (A) (A)
                 (A) (A) (A) (A) (A) (A) (A) (A) (A) (A) (A) (A)
                 (A) (A) (A) (A) (A) (A) (A) (A) (A) (A) (A) (A)
                 (A) (A) (A) (A) (A) (A) (A) (A) (A) (A) (A) (A)
                 (A) (A) (A) (A) (A) (A) (A) (A) (A) (A) (A) (A)
                 (A) (A) (A) (A) (A) (A) (A) (A) (A) (A) (A) (A)
                 (A) (A) (A) (A) (A) (A) (A) (A) (A) (A) (A) (A)
                 (A) (A) (A) (A) (A) (A) (A) (A) (A) (A) (A) (A)
                 (A) (A) (A) (A) (A) (A) (A) (A) (A) (A) (A) (A)
                 (A) (A) (A) (A) (A) (A) (A) (A) (A) (A) (A) (A)
                 (A) (A) (A) (A) (A) (A) (A) (A) (A) (A) (A) (A)
                 (A) (A) (A) (A) (A) (A) (A) (A) (A) (A)
       Virtual   (A) (A) (A) (A) (A) (A) (A) (A) (A) (A) (A) (A)
                 (A) (A) (A) (A) (A) (A) (A) (A) (A) (A) (A) (A)
                 (A) (A) (A) (A) (A) (A) (A) (A) (A) (A) (A) (A)
                 (A) (A) (A) (A) (A) (A) (A) (A) (A) (A) (A) (A)
                 (A) (A) (A) (A) (A) (A) (A) (A) (A) (A) (A) (A)
                 (A) (A) (A) (A) (A) (A) (A) (A) (A) (A) (A) (A)
                 (A) (A) (A) (A) (A) (A) (A) (A) (A) (A) (A) (A)
                 (A) (A) (A) (A) (A) (A) (A) (A) (A) (A) (A) (A)
                 (A) (A) (A) (A) (A) (A) (A) (A) (A) (A) (A) (A)
                 (A) (A) (A) (A) (A) (A) (A) (A) (A) (A) (A) (A)
                 (A) (A) (A) (A) (A) (A) (A) (A) (A) (A) (A) (A)
                 (A) (A) (A) (A) (A) (A) (A) (A) (A) (A) (A) (A)
                 (A) (A) (A) (A) (A) (A) (A) (A) (A) (A) (A) (A)
                 (A) (A) (A) (A) (A) (A) (A) (A) (A) (A) (A) (A)
                 (A) (A) (A) (A) (A) (A) (A) (A) (A) (A) (A) (A)
                 (A) (A) (A) (A) (A) (A) (A) (A) (A) (A) (A) (A)
                 (A) (A) (A) (A) (A) (A) (A) (A) (A) (A) (A) (A)
                 (A) (A) (A) (A) (A) (A) (A) (A) (A) (A) (A) (A)
                 (A) (A) (A) (A) (A) (A) (A) (A) (A) (A) (A) (A)
                 (A) (A) (A) (A) (A) (A) (A) (A) (A) (A) (A) (A)
                 (A) (A) (A) (A) (A) (A) (A) (A) (A) (A) (A) (A)
                 (A) (A) (A) (A) (A) (A) (A) (A) (A) (A) (A) (A)
                 (A) (A) (A) (A) (A) (A) (A) (A) (A) (A) (A) (A)
                 (A) (A) (A) (A) (A) (A) (A) (A) (A) (A) (A) (A)
                 (A) (A) (A) (A) (A) (A) (A) (A) (A) (A) (A) (A)
                 (A) (A) (A) (A) (A) (A) (A) (A) (A) (A) (A) (A)
                 (A) (A) (A) (A) (A) (A) (A) (A) (A) (A) (A) (A)
                 (A) (A) (A) (A) (A) (A) (A) (A) (A) (A) (A) (A)
                 (A) (A) (A) (A) (A) (A) (A) (A) (A) (A) (A) (A)
                 (A) (A) (A) (A) (A) (A) (A) (A) (A) (A) (A) (A)
                 (A) (A) (A) (A) (A) (A) (A) (A) (A) (A) (A) (A)
                 (A) (A) (A) (A) (A) (A) (A) (A) (A) (A) (A) (A)
                 (A) (A) (A) (A) (A) (A) (A) (A) (A) (A) (A) (A)
                 (A) (A) (A) (A) (A) (A) (A) (A) (A) (A) (A) (A)
                 (A) (A) (A) (A) (A) (A) (A) (A) (A) (A) (A) (A)
                 (A) (A) (A) (A) (A) (A) (A) (A) (A) (A) (A) (A)
                 (A) (A) (A) (A) (A) (A) (A) (A) (A) (A) (A) (A)
                 (A) (A) (A) (A) (A) (A) (A) (A) (A) (A) (A) (A)
                 (A) (A) (A) (A) (A) (A) (A) (A) (A) (A) (A) (A)
                 (A) (A) (A) (A) (A) (A) (A) (A) (A) (A) (A) (A)
                 (A) (A) (A) (A) (A) (A) (A) (A) (A) (A) (A) (A)
                 (A) (A) (A) (A) (A) (A) (A) (A) (A) (A) (A) (A)
                 (A) (A) (A) (A) (A) (A) (A) (A) (A) (A) (A) (A)
                 (A) (A) (A) (A) (A) (A) (A) (A) (A) (A) (A) (A)
                 (A) (A) (A) (A) (A) (A) (A) (A) (A) (A) (A) (A)
                 (A) (A) (A) (A) (A) (A) (A) (A) (A) (A) (A) (A)
                 (A) (A) (A) (A) (A) (A) (A) (A) (A) (A) (A) (A)
                 (A) (A) (A) (A) (A) (A) (A) (A) (A) (A) (A) (A)
                 (A) (A) (A) (A) (A) (A) (A) (A) (A) (A) (A) (A)
                 (A) (A) (A) (A) (A) (A) (A) (A) (A) (A) (A) (A)
                 (A) (A) (A) (A) (A) (A) (A) (A) (A) (A) (A) (A)
                 (A) (A) (A) (A) (A) (A) (A) (A) (A) (A) (A) (A)
                 (A) (A) (A) (A) (A) (A) (A) (A) (A) (A) (A) (A)
                 (A) (A) (A) (A) (A) (A) (A) (A) (A) (A) (A) (A)
                 (A) (A) (A) (A) (A) (A) (A) (A) (A) (A) (A) (A)
                 (A) (A) (A) (A) (A) (A) (A) (A) (A) (A) (A) (A)
                 (A) (A) (A) (A) (A) (A) (A) (A) (A) (A) (A) (A)
                 (A) (A) (A) (A) (A) (A) (A) (A) (A) (A) (A) (A)
                 (A) (A) (A) (A) (A) (A) (A) (A) (A) (A) (A) (A)
                 (A) (A) (A) (A) (A) (A) (A) (A) (A) (A) (A) (A)
                 (A) (A) (A) (A) (A) (A) (A) (A) (A) (A) (A) (A)
                 (A) (A) (A) (A) (A) (A) (A) (A) (A) (A) (A) (A)
                 (A) (A) (A) (A) (A) (A) (A) (A) (A) (A) (A) (A)
                 (A) (A) (A) (A) (A) (A) (A) (A) (A) (A) (A) (A)
                 (A) (A) (A) (A) (A) (A) (A) (A) (A) (A) (A) (A)
                 (A) (A) (A) (A) (A) (A) (A) (A) (A) (A) (A) (A)
                 (A) (A) (A) (A) (A) (A) (A) (A) (A) (A) (A) (A)
                 (A) (A) (A) (A) (A) (A) (A) (A) (A) (A) (A) (A)
                 (A) (A) (A) (A) (A) (A) (A) (A) (A) (A) (A) (A)
                 (A) (A) (A) (A) (A) (A) (A) (A) (A) (A) (A) (A)
                 (A) (A) (A) (A) (A) (A) (A) (A) (A) (A) (A) (A)
                 (A) (A) (A) (A) (A) (A) (A) (A) (A) (A) (A) (A)
                 (A) (A) (A) (A) (A) (A) (A) (A) (A) (A) (A) (A)
                 (A) (A) (A) (A) (A) (A) (A) (A) (A) (A) (A) (A)
                 (A) (A) (A) (A) (A) (A) (A) (A) (A) (A) (A) (A)
                 (A) (A) (A) (A) (A) (A) (A) (A) (A) (A) (A) (A)
                 (A) (A) (A) (A) (A) (A) (A) (A) (A) (A) (A) (A)
                 (A) (A) (A) (A) (A) (A) (A) (A) (A) (A) (A) (A)
                 (A) (A) (A) (A) (A) (A) (A) (A) (A) (A) (A) (A)
                 (A) (A) (A) (A) (A) (A) (A) (A) (A) (A) (A) (A)
                 (A) (A) (A) (A) (A) (A) (A) (A) (A) (A) (A) (A)
                 (A) (A) (A) (A) (A) (A) (A) (A) (A) (A) (A) (A)
                 (A) (A) (A) (A) (A) (A) (A) (A) (A) (A) (A) (A)
                 (A) (A) (A) (A) (A) (A) (A) (A) (A) (A) (A) (A)
                 (A) (A) (A) (A) (A) (A) (A) (A) (A) (A) (A) (A)
                 (A) (A) (A) (A) (A) (A) (A) (A) (A) (A) (A) (A)
                 (A) (A) (A) (A) (A) (A) (A) (A) (A) (A) (A) (A)
                 (A) (A) (A) (A) (A) (A) (A) (A) (A) (A) (A) (A)
                 (A) (A) (A) (A) (A) (A) (A) (A) (A) (A) (A) (A)
                 (A) (A) (A) (A) (A) (A) (A) (A) (A) (A) (A) (A)
                 (A) (A) (A) (A) (A) (A) (A) (A) (A) (A) (A) (A)
                 (A) (A) (A) (A) (A) (A) (A) (A) (A) (A) (A) (A)
                 (A) (A) (A) (A) (A) (A) (A) (A) (A) (A) (A) (A)
                 (A) (A) (A) (A) (A) (A) (A) (A) (A) (A) (A) (A)
                 (A) (A) (A) (A) (A) (A) (A) (A) (A) (A) (A) (A)
                 (A) (A) (A) (A) (A) (A) (A) (A) (A) (A) (A) (A)
                 (A) (A) (A) (A) (A) (A) (A) (A) (A) (A) (A) (A)
                 (A) (A) (A) (A) (A) (A) (A) (A) (A) (A) (A) (A)
                 (A) (A) (A) (A) (A) (A) (A) (A) (A) (A) (A) (A)
                 (A) (A) (A) (A) (A) (A) (A) (A) (A) (A) (A) (A)
                 (A) (A) (A) (A) (A) (A) (A) (A) (A) (A) (A) (A)
                 (A) (A) (A) (A) (A) (A) (A) (A) (A) (A) (A) (A)
                 (A) (A) (A) (A) (A) (A) (A) (A) (A) (A) (A) (A)
                 (A) (A) (A) (A) (A) (A) (A) (A) (A) (A) (A) (A)
                 (A) (A) (A) (A) (A) (A) (A) (A) (A) (A) (A) (A)
                 (A) (A) (A) (A) (A) (A) (A) (A) (A) (A) (A) (A)
                 (A) (A) (A) (A) (A) (A) (A) (A) (A) (A) (A) (A)
                 (A) (A) (A) (A) (A) (A) (A) (A) (A) (A) (A) (A)
                 (A) (A) (A) (A) (A) (A) (A) (A) (A) (A) (A) (A)
                 (A) (A) (A) (A) (A) (A) (A) (A) (A) (A) (A) (A)
 The electronic state of the initial guess is 2-A.
 Initial guess <Sx>= 0.0000 <Sy>= 0.0000 <Sz>= 0.5000 <S**2>= 0.7500 S= 0.5000
 Leave Link  401 at Tue Jan 27 20:57:05 2015, MaxMem= 2147483648 cpu:     614.8
 (Enter /opt/g09/l502.exe)
 UHF open shell SCF:
 Requested convergence on RMS density matrix=1.00D-08 within 128 cycles.
 Requested convergence on MAX density matrix=1.00D-06.
 Requested convergence on             energy=1.00D-06.
 No special actions if energy rises.
 Using DIIS extrapolation, IDIIS=  1040.
 Integral symmetry usage will be decided dynamically.
      1422537 words used for storage of precomputed grid.
 IEnd=    10526134 IEndB=    10526134 NGot=  2147483648 MDV=  2139986115
 LenX=  2139986115 LenY=  2136974155
 Fock matrices will be formed incrementally for  20 cycles.
 Integral accuracy reduced to 1.0D-05 until final iterations.

 Cycle   1  Pass 0  IDiag  1:
 FoFCou: FMM=T IPFlag=           0 FMFlag=      100000 FMFlg1=        2001
         NFxFlg=           0 DoJE=F BraDBF=F KetDBF=F FulRan=T
         Omega=  0.000000  0.000000  1.000000  0.000000  0.000000 ICntrl=       0 IOpCl=  1
         NMat0=    1 NMatS0=    1 NMatT0=    0 NMatD0=    1 NMtDS0=    0 NMtDT0=    0
         I1Cent=           0 NGrid=           0.
 Symmetry not used in FoFCou.
 FMM levels:  10  Number of levels for PrismC:   9
 E= -3946.55439255957    
 DIIS: error= 1.66D-02 at cycle   1 NSaved=   1.
 NSaved= 1 IEnMin= 1 EnMin= -3946.55439255957     IErMin= 1 ErrMin= 1.66D-02
 ErrMax= 1.66D-02 EMaxC= 1.00D-01 BMatC= 6.14D+00 BMatP= 6.14D+00
 IDIUse=3 WtCom= 8.34D-01 WtEn= 1.66D-01
 Coeff-Com:  0.100D+01
 Coeff-En:   0.100D+01
 Coeff:      0.100D+01
 Gap=     0.202 Goal=   None    Shift=    0.000
 Gap=    -0.027 Goal=   None    Shift=    0.000
 GapD=   -0.027 DampG=0.250 DampE=0.500 DampFc=0.2500 IDamp=-1.
 Damping current iteration by 2.50D-01
 RMSDP=2.24D-03 MaxDP=1.90D-01              OVMax= 9.37D-01

 Cycle   2  Pass 0  IDiag  1:
 RMSU=  3.68D-04    CP:  9.79D-01
 E= -3947.17198412683     Delta-E=       -0.617591567261 Rises=F Damp=T
 DIIS: error= 8.89D-03 at cycle   2 NSaved=   2.
 NSaved= 2 IEnMin= 2 EnMin= -3947.17198412683     IErMin= 2 ErrMin= 8.89D-03
 ErrMax= 8.89D-03 EMaxC= 1.00D-01 BMatC= 1.68D+00 BMatP= 6.14D+00
 IDIUse=3 WtCom= 9.11D-01 WtEn= 8.89D-02
 Coeff-Com: -0.837D+00 0.184D+01
 Coeff-En:   0.000D+00 0.100D+01
 Coeff:     -0.762D+00 0.176D+01
 Gap=     0.197 Goal=   None    Shift=    0.000
 Gap=    -0.025 Goal=   None    Shift=    0.000
 RMSDP=1.16D-03 MaxDP=1.37D-01 DE=-6.18D-01 OVMax= 8.39D-01

 Cycle   3  Pass 0  IDiag  1:
 RMSU=  5.46D-04    CP:  9.32D-01  2.34D+00
 E= -3948.00332238761     Delta-E=       -0.831338260781 Rises=F Damp=F
 DIIS: error= 9.95D-03 at cycle   3 NSaved=   3.
 NSaved= 3 IEnMin= 3 EnMin= -3948.00332238761     IErMin= 2 ErrMin= 8.89D-03
 ErrMax= 9.95D-03 EMaxC= 1.00D-01 BMatC= 1.07D+00 BMatP= 1.68D+00
 IDIUse=3 WtCom= 9.01D-01 WtEn= 9.95D-02
 Coeff-Com: -0.583D+00 0.118D+01 0.404D+00
 Coeff-En:   0.000D+00 0.000D+00 0.100D+01
 Coeff:     -0.525D+00 0.106D+01 0.464D+00
 Gap=     0.201 Goal=   None    Shift=    0.000
 Gap=     0.023 Goal=   None    Shift=    0.000
 RMSDP=7.40D-04 MaxDP=1.05D-01 DE=-8.31D-01 OVMax= 9.10D-01

 Cycle   4  Pass 0  IDiag  1:
 RMSU=  2.63D-04    CP:  9.34D-01  2.58D+00  3.10D-01
 E= -3948.14273289577     Delta-E=       -0.139410508156 Rises=F Damp=F
 DIIS: error= 6.52D-03 at cycle   4 NSaved=   4.
 NSaved= 4 IEnMin= 4 EnMin= -3948.14273289577     IErMin= 4 ErrMin= 6.52D-03
 ErrMax= 6.52D-03 EMaxC= 1.00D-01 BMatC= 5.12D-01 BMatP= 1.07D+00
 IDIUse=3 WtCom= 9.35D-01 WtEn= 6.52D-02
 Coeff-Com: -0.265D+00 0.534D+00 0.374D+00 0.358D+00
 Coeff-En:   0.000D+00 0.000D+00 0.393D+00 0.607D+00
 Coeff:     -0.248D+00 0.499D+00 0.375D+00 0.374D+00
 Gap=     0.164 Goal=   None    Shift=    0.000
 Gap=    -0.029 Goal=   None    Shift=    0.000
 RMSDP=5.53D-04 MaxDP=1.13D-01 DE=-1.39D-01 OVMax= 8.13D-01

 Cycle   5  Pass 0  IDiag  1:
 RMSU=  1.49D-04    CP:  9.35D-01  2.32D+00  6.63D-01  1.92D-01
 E= -3948.27036913540     Delta-E=       -0.127636239627 Rises=F Damp=F
 DIIS: error= 3.47D-03 at cycle   5 NSaved=   5.
 NSaved= 5 IEnMin= 5 EnMin= -3948.27036913540     IErMin= 5 ErrMin= 3.47D-03
 ErrMax= 3.47D-03 EMaxC= 1.00D-01 BMatC= 1.22D-01 BMatP= 5.12D-01
 IDIUse=3 WtCom= 9.65D-01 WtEn= 3.47D-02
 Coeff-Com: -0.104D+00 0.209D+00 0.238D+00 0.330D+00 0.327D+00
 Coeff-En:   0.000D+00 0.000D+00 0.000D+00 0.245D+00 0.755D+00
 Coeff:     -0.100D+00 0.202D+00 0.230D+00 0.327D+00 0.341D+00
 Gap=     0.141 Goal=   None    Shift=    0.000
 Gap=     0.009 Goal=   None    Shift=    0.000
 RMSDP=1.38D-04 MaxDP=1.97D-02 DE=-1.28D-01 OVMax= 1.27D-01

 Cycle   6  Pass 0  IDiag  1:
 RMSU=  7.08D-05    CP:  9.35D-01  2.32D+00  6.69D-01  2.09D-01  7.68D-01
 E= -3948.30232591848     Delta-E=       -0.031956783081 Rises=F Damp=F
 DIIS: error= 1.20D-03 at cycle   6 NSaved=   6.
 NSaved= 6 IEnMin= 6 EnMin= -3948.30232591848     IErMin= 6 ErrMin= 1.20D-03
 ErrMax= 1.20D-03 EMaxC= 1.00D-01 BMatC= 1.56D-02 BMatP= 1.22D-01
 IDIUse=3 WtCom= 9.88D-01 WtEn= 1.20D-02
 Coeff-Com: -0.315D-01 0.584D-01 0.591D-01 0.176D+00 0.610D-01 0.677D+00
 Coeff-En:   0.000D+00 0.000D+00 0.000D+00 0.747D-01 0.000D+00 0.925D+00
 Coeff:     -0.312D-01 0.577D-01 0.584D-01 0.175D+00 0.603D-01 0.680D+00
 Gap=     0.119 Goal=   None    Shift=    0.000
 Gap=     0.003 Goal=   None    Shift=    0.000
 RMSDP=2.35D-04 MaxDP=1.96D-02 DE=-3.20D-02 OVMax= 4.42D-01

 Cycle   7  Pass 0  IDiag  1:
 RMSU=  6.26D-05    CP:  9.35D-01  2.40D+00  5.79D-01  4.26D-01  4.74D-01
                    CP:  1.36D+00
 E= -3948.30694240911     Delta-E=       -0.004616490627 Rises=F Damp=F
 DIIS: error= 5.88D-04 at cycle   7 NSaved=   7.
 NSaved= 7 IEnMin= 7 EnMin= -3948.30694240911     IErMin= 7 ErrMin= 5.88D-04
 ErrMax= 5.88D-04 EMaxC= 1.00D-01 BMatC= 7.52D-03 BMatP= 1.56D-02
 IDIUse=3 WtCom= 9.94D-01 WtEn= 5.88D-03
 Coeff-Com: -0.161D-02-0.790D-03-0.719D-03 0.668D-01-0.464D-02 0.537D+00
 Coeff-Com:  0.404D+00
 Coeff-En:   0.000D+00 0.000D+00 0.000D+00 0.000D+00 0.000D+00 0.261D+00
 Coeff-En:   0.739D+00
 Coeff:     -0.160D-02-0.785D-03-0.715D-03 0.664D-01-0.461D-02 0.535D+00
 Coeff:      0.406D+00
 Gap=     0.123 Goal=   None    Shift=    0.000
 Gap=     0.009 Goal=   None    Shift=    0.000
 RMSDP=7.35D-05 MaxDP=9.64D-03 DE=-4.62D-03 OVMax= 1.08D-01

 Cycle   8  Pass 0  IDiag  1:
 RMSU=  1.95D-05    CP:  9.35D-01  2.38D+00  5.99D-01  3.74D-01  5.76D-01
                    CP:  1.44D+00  7.46D-01
 E= -3948.30883530692     Delta-E=       -0.001892897813 Rises=F Damp=F
 DIIS: error= 5.69D-04 at cycle   8 NSaved=   8.
 NSaved= 8 IEnMin= 8 EnMin= -3948.30883530692     IErMin= 8 ErrMin= 5.69D-04
 ErrMax= 5.69D-04 EMaxC= 1.00D-01 BMatC= 1.72D-03 BMatP= 7.52D-03
 IDIUse=3 WtCom= 9.94D-01 WtEn= 5.69D-03
 Coeff-Com:  0.400D-03-0.329D-02-0.795D-02 0.230D-01-0.111D-01 0.330D+00
 Coeff-Com:  0.306D+00 0.363D+00
 Coeff-En:   0.000D+00 0.000D+00 0.000D+00 0.000D+00 0.000D+00 0.000D+00
 Coeff-En:   0.181D+00 0.819D+00
 Coeff:      0.398D-03-0.327D-02-0.791D-02 0.228D-01-0.111D-01 0.328D+00
 Coeff:      0.305D+00 0.365D+00
 Gap=     0.123 Goal=   None    Shift=    0.000
 Gap=     0.012 Goal=   None    Shift=    0.000
 RMSDP=3.73D-05 MaxDP=6.08D-03 DE=-1.89D-03 OVMax= 5.61D-02

 Cycle   9  Pass 0  IDiag  1:
 RMSU=  1.10D-05    CP:  9.35D-01  2.38D+00  5.94D-01  3.90D-01  5.43D-01
                    CP:  1.42D+00  8.45D-01  4.13D-01
 E= -3948.30917346946     Delta-E=       -0.000338162539 Rises=F Damp=F
 DIIS: error= 2.95D-04 at cycle   9 NSaved=   9.
 NSaved= 9 IEnMin= 9 EnMin= -3948.30917346946     IErMin= 9 ErrMin= 2.95D-04
 ErrMax= 2.95D-04 EMaxC= 1.00D-01 BMatC= 7.63D-04 BMatP= 1.72D-03
 IDIUse=3 WtCom= 9.97D-01 WtEn= 2.95D-03
 Coeff-Com:  0.660D-03-0.202D-02-0.389D-02-0.647D-03 0.572D-02 0.123D+00
 Coeff-Com:  0.112D+00 0.333D+00 0.432D+00
 Coeff-En:   0.000D+00 0.000D+00 0.000D+00 0.000D+00 0.000D+00 0.000D+00
 Coeff-En:   0.000D+00 0.326D+00 0.674D+00
 Coeff:      0.659D-03-0.201D-02-0.388D-02-0.645D-03 0.571D-02 0.123D+00
 Coeff:      0.112D+00 0.333D+00 0.433D+00
 Gap=     0.124 Goal=   None    Shift=    0.000
 Gap=     0.013 Goal=   None    Shift=    0.000
 RMSDP=1.94D-05 MaxDP=2.38D-03 DE=-3.38D-04 OVMax= 2.47D-02

 Cycle  10  Pass 0  IDiag  1:
 RMSU=  5.53D-06    CP:  9.35D-01  2.38D+00  5.93D-01  3.97D-01  5.34D-01
                    CP:  1.43D+00  8.61D-01  6.91D-01  7.85D-01
 E= -3948.30935935200     Delta-E=       -0.000185882542 Rises=F Damp=F
 DIIS: error= 1.53D-04 at cycle  10 NSaved=  10.
 NSaved=10 IEnMin=10 EnMin= -3948.30935935200     IErMin=10 ErrMin= 1.53D-04
 ErrMax= 1.53D-04 EMaxC= 1.00D-01 BMatC= 2.99D-04 BMatP= 7.63D-04
 IDIUse=3 WtCom= 9.98D-01 WtEn= 1.53D-03
 Coeff-Com:  0.540D-03-0.104D-02-0.237D-03-0.484D-02 0.156D-01 0.465D-01
 Coeff-Com:  0.268D-01 0.226D+00 0.373D+00 0.318D+00
 Coeff-En:   0.000D+00 0.000D+00 0.000D+00 0.000D+00 0.000D+00 0.000D+00
 Coeff-En:   0.000D+00 0.000D+00 0.438D-01 0.956D+00
 Coeff:      0.539D-03-0.104D-02-0.236D-03-0.484D-02 0.155D-01 0.464D-01
 Coeff:      0.267D-01 0.226D+00 0.372D+00 0.319D+00
 Gap=     0.125 Goal=   None    Shift=    0.000
 Gap=     0.014 Goal=   None    Shift=    0.000
 RMSDP=5.75D-06 MaxDP=5.76D-04 DE=-1.86D-04 OVMax= 4.28D-03

 Initial convergence to 1.0D-05 achieved.  Increase integral accuracy.
 Cycle  11  Pass 1  IDiag  1:
 E= -3948.30890343025     Delta-E=        0.000455921752 Rises=F Damp=F
 DIIS: error= 3.47D-04 at cycle   1 NSaved=   1.
 NSaved= 1 IEnMin= 1 EnMin= -3948.30890343025     IErMin= 1 ErrMin= 3.47D-04
 ErrMax= 3.47D-04 EMaxC= 1.00D-01 BMatC= 6.71D-04 BMatP= 6.71D-04
 IDIUse=3 WtCom= 9.97D-01 WtEn= 3.47D-03
 Coeff-Com:  0.100D+01
 Coeff-En:   0.100D+01
 Coeff:      0.100D+01
 Gap=     0.128 Goal=   None    Shift=    0.000
 Gap=     0.015 Goal=   None    Shift=    0.000
 RMSDP=5.75D-06 MaxDP=5.76D-04 DE= 4.56D-04 OVMax= 4.58D-02

 Cycle  12  Pass 1  IDiag  1:
 RMSU=  1.39D-04    CP:  9.99D-01
 E= -3948.30873987939     Delta-E=        0.000163550860 Rises=F Damp=F
 DIIS: error= 3.05D-04 at cycle   2 NSaved=   2.
 NSaved= 2 IEnMin= 1 EnMin= -3948.30890343025     IErMin= 2 ErrMin= 3.05D-04
 ErrMax= 3.05D-04 EMaxC= 1.00D-01 BMatC= 9.51D-04 BMatP= 6.71D-04
 IDIUse=3 WtCom= 3.64D-01 WtEn= 6.36D-01
 Coeff-Com:  0.565D+00 0.435D+00
 Coeff-En:   0.699D+00 0.301D+00
 Coeff:      0.650D+00 0.350D+00
 Gap=     0.125 Goal=   None    Shift=    0.000
 Gap=     0.014 Goal=   None    Shift=    0.000
 RMSDP=4.71D-05 MaxDP=7.46D-03 DE= 1.64D-04 OVMax= 8.87D-02

 Cycle  13  Pass 1  IDiag  1:
 RMSU=  1.07D-05    CP:  9.99D-01  9.71D-01
 E= -3948.30881513493     Delta-E=       -0.000075255542 Rises=F Damp=F
 DIIS: error= 2.58D-04 at cycle   3 NSaved=   3.
 NSaved= 3 IEnMin= 1 EnMin= -3948.30890343025     IErMin= 3 ErrMin= 2.58D-04
 ErrMax= 2.58D-04 EMaxC= 1.00D-01 BMatC= 7.86D-04 BMatP= 6.71D-04
 IDIUse=3 WtCom= 3.84D-01 WtEn= 6.16D-01
 Coeff-Com:  0.240D-01 0.468D+00 0.508D+00
 Coeff-En:   0.000D+00 0.460D+00 0.540D+00
 Coeff:      0.921D-02 0.463D+00 0.528D+00
 Gap=     0.127 Goal=   None    Shift=    0.000
 Gap=     0.014 Goal=   None    Shift=    0.000
 RMSDP=2.18D-05 MaxDP=3.82D-03 DE=-7.53D-05 OVMax= 3.77D-02

 Cycle  14  Pass 1  IDiag  1:
 RMSU=  3.18D-06    CP:  9.99D-01  9.92D-01  5.57D-01
 E= -3948.30905715381     Delta-E=       -0.000242018876 Rises=F Damp=F
 DIIS: error= 6.94D-05 at cycle   4 NSaved=   4.
 NSaved= 4 IEnMin= 4 EnMin= -3948.30905715381     IErMin= 4 ErrMin= 6.94D-05
 ErrMax= 6.94D-05 EMaxC= 1.00D-01 BMatC= 6.81D-05 BMatP= 6.71D-04
 IDIUse=1 WtCom= 1.00D+00 WtEn= 0.00D+00
 Coeff-Com: -0.559D-02 0.328D+00 0.380D+00 0.298D+00
 Coeff:     -0.559D-02 0.328D+00 0.380D+00 0.298D+00
 Gap=     0.127 Goal=   None    Shift=    0.000
 Gap=     0.014 Goal=   None    Shift=    0.000
 RMSDP=4.51D-06 MaxDP=5.05D-04 DE=-2.42D-04 OVMax= 5.16D-03

 Cycle  15  Pass 1  IDiag  1:
 RMSU=  1.35D-06    CP:  9.99D-01  9.91D-01  6.13D-01  5.87D-01
 E= -3948.30907582494     Delta-E=       -0.000018671133 Rises=F Damp=F
 DIIS: error= 2.29D-05 at cycle   5 NSaved=   5.
 NSaved= 5 IEnMin= 5 EnMin= -3948.30907582494     IErMin= 5 ErrMin= 2.29D-05
 ErrMax= 2.29D-05 EMaxC= 1.00D-01 BMatC= 5.96D-06 BMatP= 6.81D-05
 IDIUse=1 WtCom= 1.00D+00 WtEn= 0.00D+00
 Coeff-Com: -0.506D-02 0.215D+00 0.230D+00 0.215D+00 0.345D+00
 Coeff:     -0.506D-02 0.215D+00 0.230D+00 0.215D+00 0.345D+00
 Gap=     0.127 Goal=   None    Shift=    0.000
 Gap=     0.014 Goal=   None    Shift=    0.000
 RMSDP=1.32D-06 MaxDP=2.13D-04 DE=-1.87D-05 OVMax= 2.03D-03

 Cycle  16  Pass 1  IDiag  1:
 RMSU=  5.73D-07    CP:  9.99D-01  9.91D-01  6.16D-01  7.21D-01  9.28D-01
 E= -3948.30907695098     Delta-E=       -0.000001126042 Rises=F Damp=F
 DIIS: error= 1.49D-05 at cycle   6 NSaved=   6.
 NSaved= 6 IEnMin= 6 EnMin= -3948.30907695098     IErMin= 6 ErrMin= 1.49D-05
 ErrMax= 1.49D-05 EMaxC= 1.00D-01 BMatC= 3.34D-06 BMatP= 5.96D-06
 IDIUse=1 WtCom= 1.00D+00 WtEn= 0.00D+00
 Coeff-Com: -0.649D-03-0.220D-01-0.884D-01-0.327D-02 0.338D+00 0.776D+00
 Coeff:     -0.649D-03-0.220D-01-0.884D-01-0.327D-02 0.338D+00 0.776D+00
 Gap=     0.127 Goal=   None    Shift=    0.000
 Gap=     0.015 Goal=   None    Shift=    0.000
 RMSDP=1.92D-06 MaxDP=2.21D-04 DE=-1.13D-06 OVMax= 2.34D-03

 Cycle  17  Pass 1  IDiag  1:
 RMSU=  4.01D-07    CP:  9.99D-01  9.91D-01  6.30D-01  8.71D-01  1.42D+00
                    CP:  8.13D-01
 E= -3948.30907786603     Delta-E=       -0.000000915054 Rises=F Damp=F
 DIIS: error= 1.68D-05 at cycle   7 NSaved=   7.
 NSaved= 7 IEnMin= 7 EnMin= -3948.30907786603     IErMin= 6 ErrMin= 1.49D-05
 ErrMax= 1.68D-05 EMaxC= 1.00D-01 BMatC= 2.37D-06 BMatP= 3.34D-06
 IDIUse=1 WtCom= 1.00D+00 WtEn= 0.00D+00
 Coeff-Com:  0.225D-02-0.138D+00-0.237D+00-0.125D+00 0.124D+00 0.842D+00
 Coeff-Com:  0.532D+00
 Coeff:      0.225D-02-0.138D+00-0.237D+00-0.125D+00 0.124D+00 0.842D+00
 Coeff:      0.532D+00
 Gap=     0.127 Goal=   None    Shift=    0.000
 Gap=     0.015 Goal=   None    Shift=    0.000
 RMSDP=1.53D-06 MaxDP=1.31D-04 DE=-9.15D-07 OVMax= 1.71D-03

 Cycle  18  Pass 1  IDiag  1:
 RMSU=  2.66D-07    CP:  9.99D-01  9.91D-01  6.40D-01  1.04D+00  1.70D+00
                    CP:  1.41D+00  9.65D-01
 E= -3948.30907866149     Delta-E=       -0.000000795451 Rises=F Damp=F
 DIIS: error= 5.75D-06 at cycle   8 NSaved=   8.
 NSaved= 8 IEnMin= 8 EnMin= -3948.30907866149     IErMin= 8 ErrMin= 5.75D-06
 ErrMax= 5.75D-06 EMaxC= 1.00D-01 BMatC= 4.85D-07 BMatP= 2.37D-06
 IDIUse=1 WtCom= 1.00D+00 WtEn= 0.00D+00
 Coeff-Com:  0.140D-02-0.773D-01-0.137D+00-0.788D-01-0.118D-01 0.366D+00
 Coeff-Com:  0.353D+00 0.585D+00
 Coeff:      0.140D-02-0.773D-01-0.137D+00-0.788D-01-0.118D-01 0.366D+00
 Coeff:      0.353D+00 0.585D+00
 Gap=     0.128 Goal=   None    Shift=    0.000
 Gap=     0.015 Goal=   None    Shift=    0.000
 RMSDP=5.01D-07 MaxDP=5.00D-05 DE=-7.95D-07 OVMax= 6.53D-04

 Cycle  19  Pass 1  IDiag  1:
 RMSU=  1.02D-07    CP:  9.99D-01  9.91D-01  6.36D-01  1.08D+00  1.81D+00
                    CP:  1.50D+00  1.17D+00  9.66D-01
 E= -3948.30907883533     Delta-E=       -0.000000173848 Rises=F Damp=F
 DIIS: error= 1.87D-06 at cycle   9 NSaved=   9.
 NSaved= 9 IEnMin= 9 EnMin= -3948.30907883533     IErMin= 9 ErrMin= 1.87D-06
 ErrMax= 1.87D-06 EMaxC= 1.00D-01 BMatC= 5.76D-08 BMatP= 4.85D-07
 IDIUse=1 WtCom= 1.00D+00 WtEn= 0.00D+00
 Coeff-Com:  0.198D-03-0.502D-02-0.188D-01-0.120D-01-0.461D-01-0.936D-02
 Coeff-Com:  0.831D-01 0.383D+00 0.624D+00
 Coeff:      0.198D-03-0.502D-02-0.188D-01-0.120D-01-0.461D-01-0.936D-02
 Coeff:      0.831D-01 0.383D+00 0.624D+00
 Gap=     0.128 Goal=   None    Shift=    0.000
 Gap=     0.015 Goal=   None    Shift=    0.000
 RMSDP=1.68D-07 MaxDP=1.42D-05 DE=-1.74D-07 OVMax= 1.68D-04

 Cycle  20  Pass 1  IDiag  1:
 RMSU=  6.90D-08    CP:  9.99D-01  9.91D-01  6.35D-01  1.09D+00  1.83D+00
                    CP:  1.53D+00  1.21D+00  1.06D+00  8.99D-01
 E= -3948.30907885610     Delta-E=       -0.000000020762 Rises=F Damp=F
 DIIS: error= 1.20D-06 at cycle  10 NSaved=  10.
 NSaved=10 IEnMin=10 EnMin= -3948.30907885610     IErMin=10 ErrMin= 1.20D-06
 ErrMax= 1.20D-06 EMaxC= 1.00D-01 BMatC= 9.73D-09 BMatP= 5.76D-08
 IDIUse=1 WtCom= 1.00D+00 WtEn= 0.00D+00
 Coeff-Com: -0.140D-03 0.111D-01 0.146D-01 0.737D-02-0.266D-01-0.802D-01
 Coeff-Com: -0.181D-01 0.123D+00 0.404D+00 0.565D+00
 Coeff:     -0.140D-03 0.111D-01 0.146D-01 0.737D-02-0.266D-01-0.802D-01
 Coeff:     -0.181D-01 0.123D+00 0.404D+00 0.565D+00
 Gap=     0.128 Goal=   None    Shift=    0.000
 Gap=     0.015 Goal=   None    Shift=    0.000
 RMSDP=7.44D-08 MaxDP=9.35D-06 DE=-2.08D-08 OVMax= 5.28D-05

 Cycle  21  Pass 1  IDiag  1:
 RMSU=  3.57D-08    CP:  9.99D-01  9.91D-01  6.35D-01  1.10D+00  1.83D+00
                    CP:  1.53D+00  1.22D+00  1.09D+00  1.16D+00  9.72D-01
 E= -3948.30907886107     Delta-E=       -0.000000004973 Rises=F Damp=F
 DIIS: error= 5.95D-07 at cycle  11 NSaved=  11.
 NSaved=11 IEnMin=11 EnMin= -3948.30907886107     IErMin=11 ErrMin= 5.95D-07
 ErrMax= 5.95D-07 EMaxC= 1.00D-01 BMatC= 3.50D-09 BMatP= 9.73D-09
 IDIUse=1 WtCom= 1.00D+00 WtEn= 0.00D+00
 Coeff-Com: -0.174D-03 0.973D-02 0.180D-01 0.106D-01 0.779D-02-0.427D-01
 Coeff-Com: -0.449D-01-0.842D-01-0.336D-01 0.363D+00 0.796D+00
 Coeff:     -0.174D-03 0.973D-02 0.180D-01 0.106D-01 0.779D-02-0.427D-01
 Coeff:     -0.449D-01-0.842D-01-0.336D-01 0.363D+00 0.796D+00
 Gap=     0.128 Goal=   None    Shift=    0.000
 Gap=     0.015 Goal=   None    Shift=    0.000
 RMSDP=7.50D-08 MaxDP=9.82D-06 DE=-4.97D-09 OVMax= 8.12D-05

 Cycle  22  Pass 1  IDiag  1:
 RMSU=  1.90D-08    CP:  9.99D-01  9.91D-01  6.36D-01  1.09D+00  1.82D+00
                    CP:  1.53D+00  1.22D+00  1.11D+00  1.23D+00  1.33D+00
                    CP:  1.19D+00
 E= -3948.30907886370     Delta-E=       -0.000000002634 Rises=F Damp=F
 DIIS: error= 4.13D-07 at cycle  12 NSaved=  12.
 NSaved=12 IEnMin=12 EnMin= -3948.30907886370     IErMin=12 ErrMin= 4.13D-07
 ErrMax= 4.13D-07 EMaxC= 1.00D-01 BMatC= 1.29D-09 BMatP= 3.50D-09
 IDIUse=1 WtCom= 1.00D+00 WtEn= 0.00D+00
 Coeff-Com: -0.567D-04 0.231D-02 0.598D-02 0.379D-02 0.115D-01-0.514D-02
 Coeff-Com: -0.219D-01-0.916D-01-0.146D+00 0.339D-01 0.443D+00 0.764D+00
 Coeff:     -0.567D-04 0.231D-02 0.598D-02 0.379D-02 0.115D-01-0.514D-02
 Coeff:     -0.219D-01-0.916D-01-0.146D+00 0.339D-01 0.443D+00 0.764D+00
 Gap=     0.128 Goal=   None    Shift=    0.000
 Gap=     0.015 Goal=   None    Shift=    0.000
 RMSDP=3.50D-08 MaxDP=4.21D-06 DE=-2.63D-09 OVMax= 2.28D-05

 Cycle  23  Pass 1  IDiag  1:
 RMSU=  1.06D-08    CP:  9.99D-01  9.91D-01  6.36D-01  1.09D+00  1.82D+00
                    CP:  1.53D+00  1.23D+00  1.12D+00  1.33D+00  1.50D+00
                    CP:  1.54D+00  1.06D+00
 E= -3948.30907886446     Delta-E=       -0.000000000757 Rises=F Damp=F
 DIIS: error= 2.63D-07 at cycle  13 NSaved=  13.
 NSaved=13 IEnMin=13 EnMin= -3948.30907886446     IErMin=13 ErrMin= 2.63D-07
 ErrMax= 2.63D-07 EMaxC= 1.00D-01 BMatC= 5.26D-10 BMatP= 1.29D-09
 IDIUse=1 WtCom= 1.00D+00 WtEn= 0.00D+00
 Coeff-Com:  0.234D-05-0.636D-03-0.338D-03 0.155D-03 0.720D-02 0.917D-02
 Coeff-Com: -0.377D-02-0.491D-01-0.102D+00-0.844D-01 0.891D-01 0.562D+00
 Coeff-Com:  0.573D+00
 Coeff:      0.234D-05-0.636D-03-0.338D-03 0.155D-03 0.720D-02 0.917D-02
 Coeff:     -0.377D-02-0.491D-01-0.102D+00-0.844D-01 0.891D-01 0.562D+00
 Coeff:      0.573D+00
 Gap=     0.128 Goal=   None    Shift=    0.000
 Gap=     0.015 Goal=   None    Shift=    0.000
 RMSDP=1.82D-08 MaxDP=2.08D-06 DE=-7.57D-10 OVMax= 9.82D-06

 Cycle  24  Pass 1  IDiag  1:
 RMSU=  8.01D-09    CP:  9.99D-01  9.91D-01  6.36D-01  1.09D+00  1.82D+00
                    CP:  1.53D+00  1.23D+00  1.13D+00  1.36D+00  1.58D+00
                    CP:  1.62D+00  1.37D+00  7.93D-01
[...]
    32  C    0.000000   0.000000   0.000000   0.000000   0.000000
    33  C   -0.000045   0.000001  -0.000002  -0.000001   0.000000
    34  C    0.000000   0.000000   0.000000   0.000000   0.000000
    35  C    0.000000   0.000000   0.000007  -0.000006   0.000024
    36  C    0.000000   0.000000   0.000000   0.000000   0.000000
    37  C    0.000000   0.000000   0.000000   0.000000   0.000000
    38  C    0.000000   0.000000   0.000000   0.000000   0.000000
    39  C    0.000000   0.000000   0.000000   0.000000   0.000000
    40  C    0.000000   0.000000   0.000000   0.000000   0.000000
    41  C    0.000000   0.000000   0.000000   0.000000   0.000000
    42  C    0.000000   0.000000   0.000000   0.000000   0.000000
    43  C    0.000000   0.000000   0.000000   0.000000   0.000000
    44  C    0.000000   0.000000   0.000000   0.000000   0.000000
    45  C    0.000000   0.000000   0.000000   0.000000   0.000000
    46  C    0.000000   0.000000   0.000000   0.000000   0.000000
    47  C    0.000000   0.000000   0.000000   0.000000   0.000000
    48  C    0.000000   0.000000   0.000000  -0.000002   0.000004
    49  C    0.000000   0.000000   0.000000   0.000001  -0.000001
    50  C    0.000000   0.000000   0.000000  -0.000009  -0.000006
    51  C    0.000000   0.000000   0.000005  -0.000034   0.000033
    52  C    0.000000   0.000000   0.000002   0.000126   0.000116
    53  C    0.000000   0.000000   0.000000   0.000000   0.000000
    54  C    0.000000   0.000000   0.000000   0.000000   0.000000
    55  C    0.000000   0.000000   0.000000   0.000000   0.000000
    56  C    0.000000   0.000000   0.000000   0.000000   0.000000
    57  C    0.000000   0.000000   0.000000   0.000000   0.000000
    58  C    0.000024   0.000066   0.000000   0.000000   0.000000
    59  C   -0.000001  -0.000011   0.000000   0.000000   0.000000
    60  C    0.000000  -0.000002   0.000000   0.000000   0.000000
    61  C    0.000000   0.000000  -0.000002   0.000000  -0.000001
    62  C   -0.000002  -0.000001   0.000009   0.000000   0.000003
    63  C   -0.000001   0.000000   0.000028  -0.000016   0.000002
    64  C    0.000000   0.000000  -0.000005   0.000006   0.000000
    65  C    0.000000   0.000000  -0.000001   0.000001   0.000000
    66  C    0.000000   0.000000   0.000000   0.000000   0.000000
    67  C    0.000011   0.000001   0.000000   0.000000   0.000000
    68  C    0.000000   0.000001   0.000000   0.000000   0.000000
    69  C    0.000001  -0.000001   0.000000   0.000000   0.000000
    70  C    0.000000   0.000000   0.000000   0.000000   0.000000
    71  C    0.000000   0.000000   0.000000   0.000000   0.000000
    72  C    0.000000   0.000000   0.000000   0.000000   0.000000
    73  C    0.000000   0.000000   0.000000   0.000000   0.000000
    74  C    0.000000   0.000000   0.000000   0.000000   0.000000
    75  C    0.000000   0.000000   0.000000   0.000000   0.000000
    76  C    0.000000   0.000000   0.000000   0.000000   0.000000
    77  C    0.000000   0.000000   0.000000   0.000000   0.000000
    78  H    0.000000   0.000000   0.000000   0.000000   0.000000
    79  H    0.000000   0.000000   0.000001   0.000000   0.000000
    80  H    0.000004   0.000000   0.000000   0.000000   0.000000
    81  H    0.000000   0.000000   0.000000   0.000000   0.000000
    82  H    0.000000   0.000000   0.000000   0.000000   0.000000
    83  H    0.000000   0.000000   0.000000   0.000000   0.000000
    84  H    0.000000   0.000000   0.000000   0.000000   0.000000
    85  H    0.000000   0.000000   0.000000   0.000000   0.000000
    86  H    0.000000   0.000000   0.000000   0.000000   0.000000
    87  H    0.000000   0.000000   0.000000   0.000000   0.000001
    88  H    0.000000   0.000000   0.000000   0.000000   0.000000
    89  H    0.000000   0.000000   0.000000   0.000000   0.000000
    90  O    0.000000   0.000000   0.000000   0.000000   0.000000
    91  C    0.000000   0.000000   0.000000   0.000000   0.000000
    92  O    0.000000   0.000000   0.000000   0.000000   0.000000
    93  C    0.000000   0.000000   0.000000   0.000000   0.000000
    94  O    0.000000   0.000000   0.000000   0.000000   0.000000
    95  O    0.000000   0.000000   0.000000   0.000000   0.000000
    96  C    0.000000   0.000000   0.000000   0.000000   0.000000
    97  C    0.000000   0.000000   0.000000   0.000000   0.000000
    98  H    0.000000   0.000000   0.000000   0.000000   0.000000
    99  H    0.000000   0.000000   0.000000   0.000000   0.000000
   100  H    0.000000   0.000000   0.000000   0.000000   0.000000
   101  H    0.000000   0.000000   0.000000   0.000000   0.000000
   102  H    0.000000   0.000000   0.000000   0.000000   0.000000
   103  H    0.000000   0.000000   0.000000   0.000000   0.000000
   104  H    0.000000   0.000000   0.000000   0.000000   0.000000
   105  H    0.000000   0.000000   0.000000   0.000000   0.000000
   106  H    0.000000   0.000000   0.000000   0.000000   0.000000
   107  H    0.000000   0.000000   0.000000   0.000000   0.000000
   108  H    0.000000  -0.000003   0.000000   0.000000   0.000000
   109  H    0.000000   0.000000   0.000000   0.000000   0.000000
   110  H    0.000000   0.000000   0.000000  -0.000001   0.000000
   111  H    0.000000   0.000000   0.000002  -0.000001   0.000000
   112  H    0.000000   0.000000   0.000000   0.000000   0.000000
   113  H    0.000004   0.000000   0.000000   0.000000   0.000000
   114  H    0.000000   0.000000   0.000000   0.000000   0.000000
   115  H    0.000000   0.000000   0.000000   0.000001   0.000000
   116  H    0.000000   0.000000   0.000000   0.000000   0.000000
   117  H    0.000000   0.000000   0.000000   0.000000   0.000000
   118  H    0.000000   0.000000   0.000000   0.000000   0.000000
   119  H    0.000000   0.000000   0.000000   0.000000   0.000000
   120  H    0.000000   0.000000   0.000000   0.000000   0.000000
   121  H    0.000000   0.000000   0.000000   0.000000   0.000000
   122  H    0.000000   0.000000   0.000000   0.000000   0.000000
   123  H    0.000000   0.000000   0.000000   0.000000   0.000000
   124  H    0.000000   0.000000   0.000000   0.000000   0.000000
   125  H    0.000000   0.000000   0.000000   0.000000   0.000000
   126  H    0.000000   0.000000   0.000000   0.000000   0.000000
   127  H    0.000000   0.000000   0.000005  -0.000002   0.000003
   128  H    0.000000   0.000000   0.000000   0.000000   0.000000
   129  H    0.000000   0.000002   0.000000   0.000000   0.000000
   130  O    0.000016  -0.000008   0.000000   0.000000   0.000000
   131  O    0.000000   0.000000   0.000000   0.000000   0.000000
   132  H    0.000000   0.000000   0.000000   0.000000   0.000000
   133  H    0.000000   0.000000   0.000000   0.000000   0.000000
   134  H    0.000000   0.000000   0.000000   0.000000   0.000000
   135  H    0.000000   0.000000   0.000000   0.000000   0.000000
   136  H    0.000000   0.000000   0.000000   0.000000   0.000000
   137  H    0.000000   0.000000   0.000000   0.000000   0.000000
   138  H    0.000000   0.000000   0.000000   0.000000   0.000000
   139  H    0.000000   0.000000   0.000000   0.000000   0.000000
   140  O    0.000000   0.000000   0.000000   0.000000   0.000000
   141  O    0.000000   0.000000   0.000017  -0.000114  -0.000101
   142  H    0.000000   0.000000  -0.000001   0.000027  -0.000039
   143  H    0.000000   0.000000   0.000000   0.000000   0.000000
   144  H    0.000000   0.000000   0.000000   0.000000   0.000000
   145  H    0.000000   0.000000   0.000000   0.000000   0.000000
   146  C    0.000000   0.000000   0.000000   0.000000   0.000000
   147  C    0.000000   0.000000  -0.000006   0.000026  -0.000088
   148  C    0.000059  -0.000038   0.000000   0.000000   0.000000
   149  C    0.000000   0.000000   0.000000   0.000000   0.000000
   150  H    0.000000   0.000000   0.000000   0.000000   0.000000
   151  H    0.000000   0.000000   0.000000   0.000000   0.000000
   152  H    0.000000   0.000000   0.000000   0.000000   0.000000
   153  H    0.000000   0.000000   0.000000   0.000000   0.000000
   154  H    0.000000   0.000000   0.000000   0.000000   0.000000
   155  H    0.000000   0.000000   0.000000   0.000000   0.000000
   156  H    0.000006   0.000000   0.000000   0.000000   0.000000
   157  H   -0.000071   0.000000   0.000000   0.000000   0.000000
   158  H    0.000000   0.000009   0.000000   0.000000   0.000000
   159  H    0.000000   0.000000  -0.000035  -0.000069   0.000063
   160  H    0.000000   0.000000  -0.000069   0.000451  -0.000164
   161  H    0.000000   0.000000   0.000063  -0.000164   0.000478
 Mulliken atomic spin densities:
              1
     1  C   -0.004636
     2  C    0.005952
     3  C    0.013444
     4  C    0.014143
     5  C    0.005586
     6  C    0.011681
     7  C    0.033443
     8  C    0.053526
     9  C    0.001258
    10  C    0.001360
    11  C    0.026755
    12  C    0.022481
    13  C    0.005840
    14  C   -0.002826
    15  C    0.011376
    16  C    0.006214
    17  C    0.001004
    18  C   -0.000807
    19  C    0.007184
    20  C    0.010293
    21  C   -0.002251
    22  C   -0.006638
    23  C    0.038325
    24  C    0.016487
    25  C    0.015721
    26  N    0.103747
    27  N    0.066886
    28  N    0.033029
    29  N    0.140805
    30  C   -0.010851
    31  C   -0.003566
    32  C    0.000744
    33  C    0.000879
    34  C   -0.002937
    35  C   -0.008559
    36  C    0.005078
    37  C   -0.004386
    38  C    0.021505
    39  C   -0.004739
    40  C    0.027125
    41  C   -0.004750
    42  C    0.015558
    43  C    0.024093
    44  C   -0.007606
    45  C    0.026750
    46  C   -0.008177
    47  C    0.020233
    48  C    0.018904
    49  C   -0.007690
    50  C    0.025890
    51  C   -0.010806
    52  C    0.020482
    53  C    0.008555
    54  C   -0.003705
    55  C    0.010516
    56  C   -0.004163
    57  C    0.008558
    58  C    0.006608
    59  C   -0.003343
    60  C    0.007958
    61  C   -0.003117
    62  C    0.006590
    63  C    0.008639
    64  C   -0.002435
    65  C    0.009857
    66  C   -0.001764
    67  C    0.005767
    68  C    0.027643
    69  C   -0.010751
    70  C    0.042619
    71  C   -0.009485
    72  C    0.036876
    73  C    0.020344
    74  C   -0.009812
    75  C    0.023134
    76  C   -0.007377
    77  C    0.018570
    78  H   -0.000689
    79  H   -0.000115
    80  H   -0.000481
    81  H    0.000003
    82  H    0.000124
    83  H   -0.000578
    84  H   -0.000022
    85  H   -0.001775
    86  H   -0.000473
    87  H   -0.001131
    88  H   -0.000190
    89  H   -0.000185
    90  O    0.020510
    91  C   -0.001650
    92  O    0.005073
    93  C   -0.000405
    94  O    0.014636
    95  O    0.011402
    96  C   -0.000932
    97  C   -0.001165
    98  H    0.000132
    99  H   -0.000777
   100  H   -0.001091
   101  H    0.000254
   102  H    0.000102
   103  H   -0.000979
   104  H    0.000334
   105  H   -0.000870
   106  H   -0.001694
   107  H    0.000314
   108  H    0.000422
   109  H   -0.001254
   110  H    0.000120
   111  H   -0.000393
   112  H    0.000040
   113  H   -0.000266
   114  H    0.000356
   115  H    0.000382
   116  H   -0.000005
   117  H    0.000856
   118  H    0.000847
   119  H   -0.000020
   120  H   -0.000018
   121  H    0.001049
   122  H    0.001072
   123  H    0.001506
   124  H    0.001518
   125  H   -0.000031
   126  H    0.000164
   127  H   -0.000268
   128  H   -0.000338
   129  H    0.000154
   130  O    0.000215
   131  O    0.003687
   132  H    0.000558
   133  H   -0.001006
   134  H    0.000496
   135  H   -0.000933
   136  H    0.000251
   137  H   -0.000432
   138  H   -0.000455
   139  H    0.000269
   140  O    0.001735
   141  O    0.003830
   142  H    0.000473
   143  H   -0.001117
   144  H    0.000411
   145  H   -0.000862
   146  C   -0.000157
   147  C   -0.000239
   148  C    0.000167
   149  C   -0.000278
   150  H   -0.000004
   151  H    0.000119
   152  H   -0.000024
   153  H    0.000311
   154  H    0.000232
   155  H   -0.000042
   156  H   -0.000035
   157  H   -0.000109
   158  H    0.000015
   159  H   -0.000010
   160  H    0.000226
   161  H    0.000297
 Sum of Mulliken atomic spin densities =   1.00000
 Electronic spatial extent (au):  <R**2>=          97125.2811
 Charge=              1.0000 electrons
 Dipole moment (field-independent basis, Debye):
    X=              0.7183    Y=              2.4687    Z=             -0.2349  Tot=              2.5818
 Quadrupole moment (field-independent basis, Debye-Ang):
   XX=           -347.5818   YY=           -396.4059   ZZ=           -463.2442
   XY=            -24.6047   XZ=              5.0030   YZ=            -12.4737
 Traceless Quadrupole moment (field-independent basis, Debye-Ang):
   XX=             54.8288   YY=              6.0047   ZZ=            -60.8336
   XY=            -24.6047   XZ=              5.0030   YZ=            -12.4737
 Octapole moment (field-independent basis, Debye-Ang**2):
  XXX=            153.3235  YYY=            187.0597  ZZZ=            -42.8985  XYY=            114.8801
  XXY=            127.8251  XXZ=            -53.7116  XZZ=             -3.0895  YZZ=             -4.6080
  YYZ=           -210.2140  XYZ=             -2.1636
 Hexadecapole moment (field-independent basis, Debye-Ang**3):
 XXXX=         -50935.8267 YYYY=         -45093.3691 ZZZZ=         -15868.8015 XXXY=            368.2514
 XXXZ=              4.0999 YYYX=          -1767.0039 YYYZ=           -589.8889 ZZZX=            177.4664
 ZZZY=           -126.7944 XXYY=         -16083.4072 XXZZ=         -10969.7040 YYZZ=          -9782.8416
 XXYZ=           -432.5240 YYXZ=           -339.0899 ZZXY=           -619.1841
 N-N= 1.697283647311D+04 E-N=-6.459017458061D+04  KE= 5.882725445848D+03
 Leave Link  601 at Tue Jan 27 22:04:21 2015, MaxMem= 2147483648 cpu:     113.0
 (Enter /opt/g09/l9999.exe)
 1\1\GINC-CHPC-SCANDIUM\SP\UB3LYP\CC-pVDZ\C81H68N4O8(1+,2)\JARVIST\27-J
 an-2015\0\\#p sp B3LYP/cc-pVDZ\\Auto Spiro; and yes I said yes I will 
 Yes.\\1,2\C,0,-0.062812,-0.045654,0.293071\C,0,-0.871139,-0.911931,-0.
 680626\C,0,-0.557952,-0.584575,-2.012705\C,0,0.465023,0.46528,-2.01127
 1\C,0,0.746724,0.819596,-0.677833\C,0,-0.949237,0.726992,1.277296\C,0,
 -0.650342,0.358602,2.605755\C,0,0.453962,-0.602872,2.590736\C,0,0.8135
 09,-0.862366,1.25316\C,0,-1.957273,1.63184,0.992963\C,0,-2.69611,2.193
 375,2.051195\C,0,-2.407169,1.819806,3.37382\C,0,-1.392483,0.904361,3.6
 54489\C,0,1.150577,1.088079,-3.058743\C,0,2.10701,2.056551,-2.764696\C
 ,0,2.387585,2.412185,-1.434762\C,0,1.693543,1.791961,-0.383528\C,0,-1.
 819085,-1.878995,-0.380956\C,0,-2.478064,-2.539606,-1.431\C,0,-2.16916
 1,-2.209945,-2.763643\C,0,-1.216557,-1.237925,-3.058086\C,0,1.15213,-1
 .233848,3.621674\C,0,2.184094,-2.117019,3.311355\C,0,2.54349,-2.376439
 ,1.975058\C,0,1.843827,-1.7314,0.936327\N,0,-3.725996,3.133028,1.77056
 8\N,0,3.400318,3.380876,-1.15396\N,0,-3.465152,-3.531863,-1.158792\N,0
 ,3.60648,-3.266812,1.690515\C,0,4.732602,-3.300942,2.561979\C,0,-3.273
 63,-4.421303,-0.066004\C,0,3.55389,-4.169387,0.594835\C,0,-4.751798,-3
 .434922,-1.759574\C,0,-3.446883,4.239082,0.923033\C,0,-4.927578,3.1153
 22,2.526683\C,0,4.747216,3.129569,-1.500709\C,0,3.051912,4.555738,-0.4
 29788\C,0,5.652512,4.182146,-1.699954\C,0,6.988984,3.939534,-2.025002\
 C,0,7.448965,2.628449,-2.178829\C,0,6.550783,1.56986,-1.993149\C,0,5.2
 26284,1.812087,-1.651153\C,0,-4.412869,4.724633,0.033738\C,0,-4.142794
 ,5.80825,-0.805744\C,0,-2.88181,6.412701,-0.778767\C,0,-1.911784,5.937
 706,0.113036\C,0,-2.192052,4.872448,0.955756\C,0,-5.36218,4.24841,3.22
 1989\C,0,-6.552821,4.241293,3.950547\C,0,-7.315419,3.077869,4.007656\C
 ,0,-6.901712,1.930551,3.323631\C,0,-5.724342,1.942228,2.569882\C,0,3.5
 74065,4.796075,0.844251\C,0,3.260227,5.957814,1.551113\C,0,2.401816,6.
 89375,0.978442\C,0,1.86743,6.679625,-0.295335\C,0,2.190103,5.51903,-1.
 009974\C,0,-2.1132,-5.224172,0.01453\C,0,-1.914148,-6.062347,1.11233\C
 ,0,-2.86822,-6.147767,2.126029\C,0,-4.034373,-5.385575,2.038727\C,0,-4
 .226525,-4.525764,0.959259\C,0,-5.329554,-2.196014,-2.061777\C,0,-6.58
 5074,-2.113015,-2.670928\C,0,-7.29867,-3.278238,-2.966866\C,0,-6.73317
 6,-4.523425,-2.654143\C,0,-5.477417,-4.600522,-2.070128\C,0,2.34236,-4
 .764041,0.196133\C,0,2.305629,-5.657884,-0.864024\C,0,3.478458,-6.0048
 88,-1.547892\C,0,4.690339,-5.428065,-1.156656\C,0,4.718678,-4.510721,-
 0.103342\C,0,5.554835,-2.155778,2.705493\C,0,6.651117,-2.196007,3.5742
 34\C,0,6.952671,-3.368507,4.273072\C,0,6.165004,-4.50666,4.116713\C,0,
 5.056685,-4.461372,3.269015\H,0,2.124793,-1.912242,-0.096137\H,0,-2.06
 2322,-2.12067,0.649138\H,0,-2.687569,-2.723849,-3.567331\H,0,-0.989215
 ,-1.001515,-4.094555\H,0,0.943378,0.825919,-4.093304\H,0,2.648262,2.55
 7722,-3.560629\H,0,0.893577,-1.053189,4.662258\H,0,2.721357,-2.620894,
 4.108316\H,0,-1.181461,0.633069,4.685994\H,0,-2.981588,2.259375,4.1835
 58\H,0,1.923053,2.058895,0.644061\H,0,-2.19535,1.904905,-0.030483\O,0,
 3.331374,-6.90573,-2.571499\C,0,4.489093,-7.281364,-3.294239\O,0,-8.53
 4679,-3.314281,-3.552823\C,0,-9.147613,-2.081707,-3.888772\O,0,8.73596
 2,2.277473,-2.501205\O,0,-2.493815,7.459454,-1.5792\C,0,-3.44441,7.987
 115,-2.48825\C,0,9.671334,3.318351,-2.711214\H,0,6.913309,0.553056,-2.
 111295\H,0,4.553095,0.974548,-1.502828\H,0,-5.387424,4.247756,-0.00495
 4\H,0,-4.915308,6.152454,-1.484301\H,0,7.652693,4.785312,-2.16705\H,0,
 5.311459,5.207026,-1.598887\H,0,-0.941312,6.421577,0.144835\H,0,-1.431
 298,4.518807,1.643702\H,0,5.663484,-4.059214,0.181671\H,0,5.616547,-5.
 667728,-1.66705\H,0,1.364001,-6.104321,-1.163667\H,0,1.420049,-4.51863
 6,0.711299\H,0,-6.994066,-1.134045,-2.894406\H,0,-4.790991,-1.283109,-
 1.829411\H,0,-7.292911,-5.422555,-2.89288\H,0,-5.049206,-5.571906,-1.8
 42924\H,0,-8.546652,-1.51397,-4.61219\H,0,-9.319792,-1.459041,-3.00021
 8\H,0,-10.108224,-2.336578,-4.340615\H,0,-4.328708,8.377642,-1.966757\
 H,0,-3.765456,7.235335,-3.222197\H,0,-2.943262,8.806159,-3.008213\H,0,
 10.617785,2.830271,-2.953384\H,0,9.803596,3.935071,-1.811062\H,0,9.376
 501,3.96839,-3.546862\H,0,5.234533,-7.763548,-2.646542\H,0,4.954944,-6
 .420078,-3.792863\H,0,4.155305,-7.995752,-4.04984\H,0,-4.787432,-5.443
 057,2.819837\H,0,-5.124748,-3.918851,0.896402\H,0,-2.704218,-6.81007,2
 .971249\H,0,-1.002029,-6.65103,1.143522\O,0,-1.128044,-5.166092,-0.946
 187\O,0,5.208793,-1.076679,1.95315\H,0,7.283168,-1.323734,3.696491\H,0
 ,7.812719,-3.383532,4.937211\H,0,6.398872,-5.419052,4.657508\H,0,4.423
 106,-5.333928,3.138683\H,0,3.675637,6.122023,2.541046\H,0,4.24299,4.05
 3863,1.270443\H,0,2.144037,7.802735,1.515266\H,0,1.218089,7.428391,-0.
 73501\O,0,1.744848,5.243656,-2.265205\O,0,-5.269765,0.88608,1.839684\H
 ,0,-7.512302,1.03567,3.365441\H,0,-8.238906,3.051979,4.579651\H,0,-6.8
 68129,5.135311,4.480757\H,0,-4.749618,5.143993,3.179081\C,0,0.906295,6
 .190265,-2.913999\C,0,-6.003061,-0.326988,1.870621\C,0,-1.459261,-5.77
 8287,-2.195407\C,0,6.013606,0.090378,2.026204\H,0,0.690925,5.764918,-3
 .895918\H,0,1.416317,7.154725,-3.041293\H,0,-0.034302,6.346659,-2.3729
 05\H,0,7.05415,-0.120141,1.746341\H,0,5.991415,0.531691,3.031473\H,0,5
 .586771,0.79181,1.307684\H,0,-0.578203,-5.666509,-2.830452\H,0,-2.3158
 01,-5.287275,-2.669343\H,0,-1.67974,-6.845421,-2.058389\H,0,-5.460479,
 -1.018116,1.223232\H,0,-7.022371,-0.193591,1.483805\H,0,-6.054144,-0.7
 41607,2.886001\\Version=EM64L-G09RevA.02\State=2-A\HF=-3948.3090789\S2
 =0.755533\S2-1=0.\S2A=0.750027\RMSD=6.248e-09\Dipole=0.282594,0.971264
 8,-0.0924132\Quadrupole=40.7638891,4.4643751,-45.2282642,-18.2929561,3
 .7195774,-9.2739204\PG=C01 [X(C81H68N4O8)]\\@


 WE STILL HAVE JUDGEMENT HERE,
 THAT WE TEACH BUT BLOODY INSTRUCTIONS,
 WHICH, BEING TAUGHT,
 RETURN TO PLAGUE THE INVENTOR.
           MACBETH ACT I, SCENE VII
 Job cpu time:  1 days  3 hours 12 minutes  9.1 seconds.
 File lengths (MBytes):  RWF=   2510 Int=      0 D2E=      0 Chk=    125 Scr=      1
 Normal termination of Gaussian 09 at Tue Jan 27 22:04:21 2015.
