 Entering Gaussian System, Link 0=g09
 Input=sp_8_B3LYP_cc-pVDZ.com
 Output=sp_8_B3LYP_cc-pVDZ.log
 Initial command:
 /opt/g09/l1.exe /home/jarvist/2014-07_SPIRO/b3lyp-631gs_opt/delta_scf/cation/Gau-48491.inp -scrdir=/home/jarvist/2014-07_SPIRO/b3lyp-631gs_opt/delta_scf/cation/
 Default is to use a total of   8 processors:
                                8 via shared-memory
                                1 via Linda
 Entering Link 1 = /opt/g09/l1.exe PID=     48493.
  
 Copyright (c) 1988,1990,1992,1993,1995,1998,2003,2009, Gaussian, Inc.
                  All Rights Reserved.
  
 This is part of the Gaussian(R) 09 program.  It is based on
 the Gaussian(R) 03 system (copyright 2003, Gaussian, Inc.),
 the Gaussian(R) 98 system (copyright 1998, Gaussian, Inc.),
 the Gaussian(R) 94 system (copyright 1995, Gaussian, Inc.),
 the Gaussian 92(TM) system (copyright 1992, Gaussian, Inc.),
 the Gaussian 90(TM) system (copyright 1990, Gaussian, Inc.),
 the Gaussian 88(TM) system (copyright 1988, Gaussian, Inc.),
 the Gaussian 86(TM) system (copyright 1986, Carnegie Mellon
 University), and the Gaussian 82(TM) system (copyright 1983,
 Carnegie Mellon University). Gaussian is a federally registered
 trademark of Gaussian, Inc.
  
 This software contains proprietary and confidential information,
 including trade secrets, belonging to Gaussian, Inc.
  
 This software is provided under written license and may be
 used, copied, transmitted, or stored only in accord with that
 written license.
  
 The following legend is applicable only to US Government
 contracts under FAR:
  
                    RESTRICTED RIGHTS LEGEND
  
 Use, reproduction and disclosure by the US Government is
 subject to restrictions as set forth in subparagraphs (a)
 and (c) of the Commercial Computer Software - Restricted
 Rights clause in FAR 52.227-19.
  
 Gaussian, Inc.
 340 Quinnipiac St., Bldg. 40, Wallingford CT 06492
  
  
 ---------------------------------------------------------------
 Warning -- This program may not be used in any manner that
 competes with the business of Gaussian, Inc. or will provide
 assistance to any competitor of Gaussian, Inc.  The licensee
 of this program is prohibited from giving any competitor of
 Gaussian, Inc. access to this program.  By using this program,
 the user acknowledges that Gaussian, Inc. is engaged in the
 business of creating and licensing software in the field of
 computational chemistry and represents and warrants to the
 licensee that it is not a competitor of Gaussian, Inc. and that
 it will not use this program in any manner prohibited above.
 ---------------------------------------------------------------
  

 Cite this work as:
 Gaussian 09, Revision A.02,
 M. J. Frisch, G. W. Trucks, H. B. Schlegel, G. E. Scuseria, 
 M. A. Robb, J. R. Cheeseman, G. Scalmani, V. Barone, B. Mennucci, 
 G. A. Petersson, H. Nakatsuji, M. Caricato, X. Li, H. P. Hratchian, 
 A. F. Izmaylov, J. Bloino, G. Zheng, J. L. Sonnenberg, M. Hada, 
 M. Ehara, K. Toyota, R. Fukuda, J. Hasegawa, M. Ishida, T. Nakajima, 
 Y. Honda, O. Kitao, H. Nakai, T. Vreven, J. A. Montgomery, Jr., 
 J. E. Peralta, F. Ogliaro, M. Bearpark, J. J. Heyd, E. Brothers, 
 K. N. Kudin, V. N. Staroverov, R. Kobayashi, J. Normand, 
 K. Raghavachari, A. Rendell, J. C. Burant, S. S. Iyengar, J. Tomasi, 
 M. Cossi, N. Rega, J. M. Millam, M. Klene, J. E. Knox, J. B. Cross, 
 V. Bakken, C. Adamo, J. Jaramillo, R. Gomperts, R. E. Stratmann, 
 O. Yazyev, A. J. Austin, R. Cammi, C. Pomelli, J. W. Ochterski, 
 R. L. Martin, K. Morokuma, V. G. Zakrzewski, G. A. Voth, 
 P. Salvador, J. J. Dannenberg, S. Dapprich, A. D. Daniels, 
 O. Farkas, J. B. Foresman, J. V. Ortiz, J. Cioslowski, 
 and D. J. Fox, Gaussian, Inc., Wallingford CT, 2009.
 
 ******************************************
 Gaussian 09:  EM64L-G09RevA.02 11-Jun-2009
                 3-Feb-2015 
 ******************************************
 %mem=16GB
 %nprocs=24
 Will use up to   24 processors via shared memory.
 Default route:  MaxDisk=100GB
 -------------------
 #p sp B3LYP/cc-pVDZ
 -------------------
 1/38=1/1;
 2/12=2,17=6,18=5,40=1/2;
 3/5=16,11=2,16=1,25=1,30=1,74=-5/1,2,3;
 4//1;
 5/5=2,38=5/2;
 6/7=2,8=2,9=2,10=2,28=1/1;
 99/5=1,9=1/99;
 Leave Link    1 at Tue Feb  3 15:07:12 2015, MaxMem= 2147483648 cpu:       2.2
 (Enter /opt/g09/l101.exe)
 ------------------------------------------
 Auto Spiro; and yes I said yes I will Yes.
 ------------------------------------------
 Symbolic Z-matrix:
 Charge =  1 Multiplicity = 2
 C                    -0.02081  -0.01101   0.25468 
 C                     0.53629  -1.04358   1.24199 
 C                     0.30844  -0.63094   2.56997 
 C                    -0.39598   0.65238   2.55117 
 C                    -0.59543   1.0411    1.21145 
 C                     1.02585   0.55138  -0.71458 
 C                     0.63462   0.327    -2.04903 
 C                    -0.65091  -0.37341  -2.05243 
 C                    -1.05418  -0.58829  -0.7203 
 C                     2.21739   1.18945  -0.40914 
 C                     3.04614   1.63924  -1.45545 
 C                     2.6482    1.42537  -2.78978 
 C                     1.45833   0.76623  -3.08865 
 C                    -0.85968   1.47504   3.58026 
 C                    -1.50325   2.67039   3.26682 
 C                    -1.70792   3.05645   1.92791 
 C                    -1.24549   2.22146   0.8915 
 C                     1.19478  -2.22875   0.9577 
 C                     1.63598  -3.04361   2.01878 
 C                     1.40199  -2.63398   3.34572 
 C                     0.75061  -1.43437   3.62374 
 C                    -1.46534  -0.82051  -3.09614 
 C                    -2.6567   -1.47918  -2.80365 
 C                    -3.06512  -1.68724  -1.47107 
 C                    -2.24657  -1.22752  -0.42073 
 N                     4.26684   2.30448  -1.17182 
 N                    -2.37619   4.26995   1.62461 
 N                     2.31129  -4.26313   1.75416 
 N                    -4.28474  -2.35475  -1.19453 
 C                    -5.43562  -2.10721  -1.99629 
 C                     1.85707  -5.12347   0.71574 
 C                    -4.38516  -3.2404   -0.08594 
 C                     3.42825  -4.6455    2.54705 
 C                     4.34832   3.22036  -0.08559 
 C                     5.42768   2.0327   -1.94695 
 C                    -3.48806   4.68696   2.40722 
 C                    -1.9014    5.10649   0.57499 
 C                    -3.60796   6.01109   2.84465 
 C                    -4.71199   6.42913   3.59188 
 C                    -5.71048   5.51187   3.93545 
 C                    -5.59304   4.18009   3.5108 
 C                    -4.50539   3.77701   2.74956 
 C                     5.44167   3.20507   0.78744 
 C                     5.54283   4.12013   1.83775 
 C                     4.52672   5.0579    2.04715 
 C                     3.41928   5.07065   1.186 
 C                     3.33632   4.17377   0.12998 
 C                     6.2691    3.08001  -2.36055 
 C                     7.41839   2.83295  -3.10122 
 C                     7.75077   1.51017  -3.47195 
 C                     6.90093   0.4716   -3.08451 
 C                     5.75996   0.72612  -2.31947 
 C                    -2.81889   5.69812  -0.31641 
 C                    -2.38347   6.53182  -1.34077 
 C                    -0.99639   6.77312  -1.51367 
 C                    -0.09571   6.17351  -0.63736 
 C                    -0.54008   5.35513   0.40895 
 C                     0.49796  -5.36683   0.52262 
 C                     0.07301  -6.20998  -0.5117 
 C                     0.98982  -6.84078  -1.3486 
 C                     2.37383  -6.60625  -1.14708 
 C                     2.79091  -5.74669  -0.13633 
 C                     4.42774  -3.72105   2.87342 
 C                     5.52341  -4.08663   3.65846 
 C                     5.64925  -5.40423   4.11178 
 C                     4.65896  -6.3401    3.77972 
 C                     3.56063  -5.9642    3.01896 
 C                    -3.37751  -4.18794   0.17378 
 C                    -3.48055  -5.05748   1.25071 
 C                    -4.60394  -5.02255   2.09048 
 C                    -5.61627  -4.09137   1.8372 
 C                    -5.49561  -3.20411   0.76504 
 C                    -5.79498  -0.81199  -2.36432 
 C                    -6.92448  -0.59375  -3.16281 
 C                    -7.7239   -1.65391  -3.58148 
 C                    -7.36835  -2.97318  -3.19953 
 C                    -6.23068  -3.18754  -2.42904 
 H                    -2.55575  -1.37302   0.60943 
 H                     1.37513  -2.53482  -0.06801 
 H                     1.73538  -3.27021   4.15921 
 H                     0.57905  -1.14256   4.6569 
 H                    -0.71135   1.20182   4.62207 
 H                    -1.85276   3.3212    4.06173 
 H                    -1.17283  -0.67459  -4.13305 
 H                    -3.28646  -1.84157  -3.6095 
 H                     1.17397   0.61452  -4.12696 
 H                     3.28455   1.78364  -3.59245 
 H                    -1.40428   2.50836  -0.14324 
 H                     2.51787   1.34295   0.6225 
 O                    -4.61357  -5.93135   3.11266 
 C                    -5.71257  -5.91563   4.00705 
 O                     6.684    -5.87464   4.87418 
 C                     7.70802  -4.96629   5.23962 
 O                    -6.82747   5.80768   4.66899 
 O                     4.51781   5.99298   3.04525 
 C                     5.60911   6.01207   3.94901 
 C                    -6.98815   7.13772   5.12988 
 H                    -6.37818   3.47909   3.77715 
 H                    -4.43247   2.74693   2.41495 
 H                     6.23066   2.47425   0.64061 
 H                     6.41004   4.07957   2.48702 
 H                    -4.77026   7.4643    3.90914 
 H                    -2.83095   6.72629   2.59358 
 H                     2.63889   5.80614   1.3575 
 H                     2.47732   4.20003  -0.53339 
 H                    -6.28022  -2.47607   0.58445 
 H                    -6.49418  -4.03254   2.47071 
 H                    -2.70308  -5.78728   1.45645 
 H                    -2.50552  -4.23038  -0.47166 
 H                     6.27316  -3.33968   3.89398 
 H                     4.34524  -2.69969   2.515 
 H                     4.76302  -7.35741   4.14458 
 H                     2.7931   -6.69381   2.78073 
 H                     7.316    -4.13291   5.83849 
 H                     8.22463  -4.56131   4.35865 
 H                     8.41757  -5.53845   5.8406 
 H                     6.55849   6.21305   3.4341 
 H                     5.69436   5.06623   4.50108 
 H                     5.40296   6.82141   4.65214 
 H                    -7.92885   7.1528    5.68385 
 H                    -7.04776   7.8515    4.29681 
 H                    -6.1697    7.4368    5.79879 
 H                    -6.65894  -6.1279    3.49089 
 H                    -5.7972   -4.95218   4.5277 
 H                    -5.51717  -6.70327   4.73734 
 O                     3.20991  -7.25652  -2.00608 
 H                     3.84443  -5.54552   0.01131 
 H                    -0.9893   -6.38337  -0.64223 
 H                    -0.23429  -4.89736   1.17068 
 H                    -5.19537   0.03006  -2.03563 
 H                    -7.18114   0.42265  -3.43891 
 O                    -8.19635  -3.95757  -3.65218 
 H                    -5.94012  -4.19161  -2.14653 
 O                    -3.20245   7.14938  -2.23951 
 H                    -3.87401   5.49189  -0.18816 
 H                     0.96808   6.35209  -0.74673 
 H                     0.17923   4.90827   1.0869 
 H                     5.12554  -0.0987   -2.01254 
 H                     7.13181  -0.5535   -3.35174 
 O                     8.23521   3.89451  -3.41128 
 H                     6.04428   4.10743  -2.09567 
 O                     0.67437  -7.68806  -2.37164 
 C                    -0.69667  -7.94892  -2.61023 
 O                     8.90924   1.3511   -4.1842 
 C                     9.30478   0.03252  -4.52185 
 O                    -0.66229   7.59433  -2.55146 
 C                     0.71254   7.85917  -2.76485 
 O                    -8.85009  -1.54188  -4.34507 
 C                    -9.25064  -0.24281  -4.74072 
 H                    -0.72739  -8.63108  -3.46212 
 H                    -1.24672  -7.03118  -2.86019 
 H                    -1.1758   -8.42814  -1.74522 
 H                    -10.15964  -0.3768   -5.33039 
 H                    -8.48629   0.24706  -5.35974 
 H                    -9.47158   0.39562  -3.87413 
 H                     0.75843   8.51821  -3.63403 
 H                     1.16758   8.36531  -1.90228 
 H                     1.27481   6.93939  -2.9768 
 H                     8.57031  -0.45762  -5.17535 
 H                     9.45551  -0.58417  -3.62581 
 H                     10.25211   0.13128  -5.05531 
 C                    -7.89645  -5.29495  -3.2929 
 C                    -4.59862   6.94287  -2.11613 
 C                     8.32437   4.22889  -4.79752 
 C                     4.60508  -7.07381  -1.84045 
 H                    -5.05817   7.53103  -2.91287 
 H                    -4.86502   5.88512  -2.24643 
 H                    -4.97573   7.28908  -1.14432 
 H                    -8.68353  -5.9065   -3.73823 
 H                    -7.9009   -5.43265  -2.20325 
 H                    -6.92259  -5.61283  -3.68961 
 H                     5.07918  -7.69371  -2.60391 
 H                     4.94144  -7.39894  -0.84676 
 H                     4.89772  -6.02575  -1.99169 
 H                     7.33293   4.46792  -5.20582 
 H                     8.77465   3.41892  -5.37931 
 H                     8.95942   5.11635  -4.85259 
 
 NAtoms=    177 NQM=    177 NQMF=      0 NMic=      0 NMicF=      0 NTot=    177.
                    Isotopes and Nuclear Properties:
 (Nuclear quadrupole moments (NQMom) in fm**2, nuclear magnetic moments (NMagM)
  in nuclear magnetons)

  Atom         1           2           3           4           5           6           7           8           9          10
 IAtWgt=          12          12          12          12          12          12          12          12          12          12
 AtmWgt=  12.0000000  12.0000000  12.0000000  12.0000000  12.0000000  12.0000000  12.0000000  12.0000000  12.0000000  12.0000000
 NucSpn=           0           0           0           0           0           0           0           0           0           0
 AtZEff=   0.0000000   0.0000000   0.0000000   0.0000000   0.0000000   0.0000000   0.0000000   0.0000000   0.0000000   0.0000000
 NQMom=    0.0000000   0.0000000   0.0000000   0.0000000   0.0000000   0.0000000   0.0000000   0.0000000   0.0000000   0.0000000
 NMagM=    0.0000000   0.0000000   0.0000000   0.0000000   0.0000000   0.0000000   0.0000000   0.0000000   0.0000000   0.0000000

  Atom        11          12          13          14          15          16          17          18          19          20
 IAtWgt=          12          12          12          12          12          12          12          12          12          12
 AtmWgt=  12.0000000  12.0000000  12.0000000  12.0000000  12.0000000  12.0000000  12.0000000  12.0000000  12.0000000  12.0000000
 NucSpn=           0           0           0           0           0           0           0           0           0           0
 AtZEff=   0.0000000   0.0000000   0.0000000   0.0000000   0.0000000   0.0000000   0.0000000   0.0000000   0.0000000   0.0000000
 NQMom=    0.0000000   0.0000000   0.0000000   0.0000000   0.0000000   0.0000000   0.0000000   0.0000000   0.0000000   0.0000000
 NMagM=    0.0000000   0.0000000   0.0000000   0.0000000   0.0000000   0.0000000   0.0000000   0.0000000   0.0000000   0.0000000

  Atom        21          22          23          24          25          26          27          28          29          30
 IAtWgt=          12          12          12          12          12          14          14          14          14          12
 AtmWgt=  12.0000000  12.0000000  12.0000000  12.0000000  12.0000000  14.0030740  14.0030740  14.0030740  14.0030740  12.0000000
 NucSpn=           0           0           0           0           0           2           2           2           2           0
 AtZEff=   0.0000000   0.0000000   0.0000000   0.0000000   0.0000000   0.0000000   0.0000000   0.0000000   0.0000000   0.0000000
 NQMom=    0.0000000   0.0000000   0.0000000   0.0000000   0.0000000   2.0440000   2.0440000   2.0440000   2.0440000   0.0000000
 NMagM=    0.0000000   0.0000000   0.0000000   0.0000000   0.0000000   0.4037610   0.4037610   0.4037610   0.4037610   0.0000000

  Atom        31          32          33          34          35          36          37          38          39          40
 IAtWgt=          12          12          12          12          12          12          12          12          12          12
 AtmWgt=  12.0000000  12.0000000  12.0000000  12.0000000  12.0000000  12.0000000  12.0000000  12.0000000  12.0000000  12.0000000
 NucSpn=           0           0           0           0           0           0           0           0           0           0
 AtZEff=   0.0000000   0.0000000   0.0000000   0.0000000   0.0000000   0.0000000   0.0000000   0.0000000   0.0000000   0.0000000
 NQMom=    0.0000000   0.0000000   0.0000000   0.0000000   0.0000000   0.0000000   0.0000000   0.0000000   0.0000000   0.0000000
 NMagM=    0.0000000   0.0000000   0.0000000   0.0000000   0.0000000   0.0000000   0.0000000   0.0000000   0.0000000   0.0000000

  Atom        41          42          43          44          45          46          47          48          49          50
 IAtWgt=          12          12          12          12          12          12          12          12          12          12
 AtmWgt=  12.0000000  12.0000000  12.0000000  12.0000000  12.0000000  12.0000000  12.0000000  12.0000000  12.0000000  12.0000000
 NucSpn=           0           0           0           0           0           0           0           0           0           0
 AtZEff=   0.0000000   0.0000000   0.0000000   0.0000000   0.0000000   0.0000000   0.0000000   0.0000000   0.0000000   0.0000000
 NQMom=    0.0000000   0.0000000   0.0000000   0.0000000   0.0000000   0.0000000   0.0000000   0.0000000   0.0000000   0.0000000
 NMagM=    0.0000000   0.0000000   0.0000000   0.0000000   0.0000000   0.0000000   0.0000000   0.0000000   0.0000000   0.0000000

  Atom        51          52          53          54          55          56          57          58          59          60
 IAtWgt=          12          12          12          12          12          12          12          12          12          12
 AtmWgt=  12.0000000  12.0000000  12.0000000  12.0000000  12.0000000  12.0000000  12.0000000  12.0000000  12.0000000  12.0000000
 NucSpn=           0           0           0           0           0           0           0           0           0           0
 AtZEff=   0.0000000   0.0000000   0.0000000   0.0000000   0.0000000   0.0000000   0.0000000   0.0000000   0.0000000   0.0000000
 NQMom=    0.0000000   0.0000000   0.0000000   0.0000000   0.0000000   0.0000000   0.0000000   0.0000000   0.0000000   0.0000000
 NMagM=    0.0000000   0.0000000   0.0000000   0.0000000   0.0000000   0.0000000   0.0000000   0.0000000   0.0000000   0.0000000

  Atom        61          62          63          64          65          66          67          68          69          70
 IAtWgt=          12          12          12          12          12          12          12          12          12          12
 AtmWgt=  12.0000000  12.0000000  12.0000000  12.0000000  12.0000000  12.0000000  12.0000000  12.0000000  12.0000000  12.0000000
 NucSpn=           0           0           0           0           0           0           0           0           0           0
 AtZEff=   0.0000000   0.0000000   0.0000000   0.0000000   0.0000000   0.0000000   0.0000000   0.0000000   0.0000000   0.0000000
 NQMom=    0.0000000   0.0000000   0.0000000   0.0000000   0.0000000   0.0000000   0.0000000   0.0000000   0.0000000   0.0000000
 NMagM=    0.0000000   0.0000000   0.0000000   0.0000000   0.0000000   0.0000000   0.0000000   0.0000000   0.0000000   0.0000000

  Atom        71          72          73          74          75          76          77          78          79          80
 IAtWgt=          12          12          12          12          12          12          12           1           1           1
 AtmWgt=  12.0000000  12.0000000  12.0000000  12.0000000  12.0000000  12.0000000  12.0000000   1.0078250   1.0078250   1.0078250
 NucSpn=           0           0           0           0           0           0           0           1           1           1
 AtZEff=   0.0000000   0.0000000   0.0000000   0.0000000   0.0000000   0.0000000   0.0000000   0.0000000   0.0000000   0.0000000
 NQMom=    0.0000000   0.0000000   0.0000000   0.0000000   0.0000000   0.0000000   0.0000000   0.0000000   0.0000000   0.0000000
 NMagM=    0.0000000   0.0000000   0.0000000   0.0000000   0.0000000   0.0000000   0.0000000   2.7928460   2.7928460   2.7928460

  Atom        81          82          83          84          85          86          87          88          89          90
 IAtWgt=           1           1           1           1           1           1           1           1           1          16
 AtmWgt=   1.0078250   1.0078250   1.0078250   1.0078250   1.0078250   1.0078250   1.0078250   1.0078250   1.0078250  15.9949146
 NucSpn=           1           1           1           1           1           1           1           1           1           0
 AtZEff=   0.0000000   0.0000000   0.0000000   0.0000000   0.0000000   0.0000000   0.0000000   0.0000000   0.0000000   0.0000000
 NQMom=    0.0000000   0.0000000   0.0000000   0.0000000   0.0000000   0.0000000   0.0000000   0.0000000   0.0000000   0.0000000
 NMagM=    2.7928460   2.7928460   2.7928460   2.7928460   2.7928460   2.7928460   2.7928460   2.7928460   2.7928460   0.0000000

  Atom        91          92          93          94          95          96          97          98          99         100
 IAtWgt=          12          16          12          16          16          12          12           1           1           1
 AtmWgt=  12.0000000  15.9949146  12.0000000  15.9949146  15.9949146  12.0000000  12.0000000   1.0078250   1.0078250   1.0078250
 NucSpn=           0           0           0           0           0           0           0           1           1           1
 AtZEff=   0.0000000   0.0000000   0.0000000   0.0000000   0.0000000   0.0000000   0.0000000   0.0000000   0.0000000   0.0000000
 NQMom=    0.0000000   0.0000000   0.0000000   0.0000000   0.0000000   0.0000000   0.0000000   0.0000000   0.0000000   0.0000000
 NMagM=    0.0000000   0.0000000   0.0000000   0.0000000   0.0000000   0.0000000   0.0000000   2.7928460   2.7928460   2.7928460

  Atom       101         102         103         104         105         106         107         108         109         110
 IAtWgt=           1           1           1           1           1           1           1           1           1           1
 AtmWgt=   1.0078250   1.0078250   1.0078250   1.0078250   1.0078250   1.0078250   1.0078250   1.0078250   1.0078250   1.0078250
 NucSpn=           1           1           1           1           1           1           1           1           1           1
 AtZEff=   0.0000000   0.0000000   0.0000000   0.0000000   0.0000000   0.0000000   0.0000000   0.0000000   0.0000000   0.0000000
 NQMom=    0.0000000   0.0000000   0.0000000   0.0000000   0.0000000   0.0000000   0.0000000   0.0000000   0.0000000   0.0000000
 NMagM=    2.7928460   2.7928460   2.7928460   2.7928460   2.7928460   2.7928460   2.7928460   2.7928460   2.7928460   2.7928460

  Atom       111         112         113         114         115         116         117         118         119         120
 IAtWgt=           1           1           1           1           1           1           1           1           1           1
 AtmWgt=   1.0078250   1.0078250   1.0078250   1.0078250   1.0078250   1.0078250   1.0078250   1.0078250   1.0078250   1.0078250
 NucSpn=           1           1           1           1           1           1           1           1           1           1
 AtZEff=   0.0000000   0.0000000   0.0000000   0.0000000   0.0000000   0.0000000   0.0000000   0.0000000   0.0000000   0.0000000
 NQMom=    0.0000000   0.0000000   0.0000000   0.0000000   0.0000000   0.0000000   0.0000000   0.0000000   0.0000000   0.0000000
 NMagM=    2.7928460   2.7928460   2.7928460   2.7928460   2.7928460   2.7928460   2.7928460   2.7928460   2.7928460   2.7928460

  Atom       121         122         123         124         125         126         127         128         129         130
 IAtWgt=           1           1           1           1           1          16           1           1           1           1
 AtmWgt=   1.0078250   1.0078250   1.0078250   1.0078250   1.0078250  15.9949146   1.0078250   1.0078250   1.0078250   1.0078250
 NucSpn=           1           1           1           1           1           0           1           1           1           1
 AtZEff=   0.0000000   0.0000000   0.0000000   0.0000000   0.0000000   0.0000000   0.0000000   0.0000000   0.0000000   0.0000000
 NQMom=    0.0000000   0.0000000   0.0000000   0.0000000   0.0000000   0.0000000   0.0000000   0.0000000   0.0000000   0.0000000
 NMagM=    2.7928460   2.7928460   2.7928460   2.7928460   2.7928460   0.0000000   2.7928460   2.7928460   2.7928460   2.7928460

  Atom       131         132         133         134         135         136         137         138         139         140
 IAtWgt=           1          16           1          16           1           1           1           1           1          16
 AtmWgt=   1.0078250  15.9949146   1.0078250  15.9949146   1.0078250   1.0078250   1.0078250   1.0078250   1.0078250  15.9949146
 NucSpn=           1           0           1           0           1           1           1           1           1           0
 AtZEff=   0.0000000   0.0000000   0.0000000   0.0000000   0.0000000   0.0000000   0.0000000   0.0000000   0.0000000   0.0000000
 NQMom=    0.0000000   0.0000000   0.0000000   0.0000000   0.0000000   0.0000000   0.0000000   0.0000000   0.0000000   0.0000000
 NMagM=    2.7928460   0.0000000   2.7928460   0.0000000   2.7928460   2.7928460   2.7928460   2.7928460   2.7928460   0.0000000

  Atom       141         142         143         144         145         146         147         148         149         150
 IAtWgt=           1          16          12          16          12          16          12          16          12           1
 AtmWgt=   1.0078250  15.9949146  12.0000000  15.9949146  12.0000000  15.9949146  12.0000000  15.9949146  12.0000000   1.0078250
 NucSpn=           1           0           0           0           0           0           0           0           0           1
 AtZEff=   0.0000000   0.0000000   0.0000000   0.0000000   0.0000000   0.0000000   0.0000000   0.0000000   0.0000000   0.0000000
 NQMom=    0.0000000   0.0000000   0.0000000   0.0000000   0.0000000   0.0000000   0.0000000   0.0000000   0.0000000   0.0000000
 NMagM=    2.7928460   0.0000000   0.0000000   0.0000000   0.0000000   0.0000000   0.0000000   0.0000000   0.0000000   2.7928460

  Atom       151         152         153         154         155         156         157         158         159         160
 IAtWgt=           1           1           1           1           1           1           1           1           1           1
 AtmWgt=   1.0078250   1.0078250   1.0078250   1.0078250   1.0078250   1.0078250   1.0078250   1.0078250   1.0078250   1.0078250
 NucSpn=           1           1           1           1           1           1           1           1           1           1
 AtZEff=   0.0000000   0.0000000   0.0000000   0.0000000   0.0000000   0.0000000   0.0000000   0.0000000   0.0000000   0.0000000
 NQMom=    0.0000000   0.0000000   0.0000000   0.0000000   0.0000000   0.0000000   0.0000000   0.0000000   0.0000000   0.0000000
 NMagM=    2.7928460   2.7928460   2.7928460   2.7928460   2.7928460   2.7928460   2.7928460   2.7928460   2.7928460   2.7928460

  Atom       161         162         163         164         165         166         167         168         169         170
 IAtWgt=           1          12          12          12          12           1           1           1           1           1
 AtmWgt=   1.0078250  12.0000000  12.0000000  12.0000000  12.0000000   1.0078250   1.0078250   1.0078250   1.0078250   1.0078250
 NucSpn=           1           0           0           0           0           1           1           1           1           1
 AtZEff=   0.0000000   0.0000000   0.0000000   0.0000000   0.0000000   0.0000000   0.0000000   0.0000000   0.0000000   0.0000000
 NQMom=    0.0000000   0.0000000   0.0000000   0.0000000   0.0000000   0.0000000   0.0000000   0.0000000   0.0000000   0.0000000
 NMagM=    2.7928460   0.0000000   0.0000000   0.0000000   0.0000000   2.7928460   2.7928460   2.7928460   2.7928460   2.7928460

  Atom       171         172         173         174         175         176         177
 IAtWgt=           1           1           1           1           1           1           1
 AtmWgt=   1.0078250   1.0078250   1.0078250   1.0078250   1.0078250   1.0078250   1.0078250
 NucSpn=           1           1           1           1           1           1           1
 AtZEff=   0.0000000   0.0000000   0.0000000   0.0000000   0.0000000   0.0000000   0.0000000
 NQMom=    0.0000000   0.0000000   0.0000000   0.0000000   0.0000000   0.0000000   0.0000000
 NMagM=    2.7928460   2.7928460   2.7928460   2.7928460   2.7928460   2.7928460   2.7928460
 Leave Link  101 at Tue Feb  3 15:07:13 2015, MaxMem= 2147483648 cpu:       3.0
 (Enter /opt/g09/l202.exe)
 Stoichiometry    C85H76N4O12(1+,2)
 Framework group  C1[X(C85H76N4O12)]
 Deg. of freedom   525
 Full point group                 C1      NOp   1
 Largest Abelian subgroup         C1      NOp   1
 Largest concise Abelian subgroup C1      NOp   1
                         Standard orientation:                         
 ---------------------------------------------------------------------
 Center     Atomic      Atomic             Coordinates (Angstroms)
 Number     Number       Type             X           Y           Z
 ---------------------------------------------------------------------
      1          6           0       -0.020812   -0.011012    0.254683
      2          6           0        0.536287   -1.043583    1.241990
      3          6           0        0.308444   -0.630940    2.569972
      4          6           0       -0.395979    0.652381    2.551170
      5          6           0       -0.595425    1.041096    1.211448
      6          6           0        1.025849    0.551375   -0.714579
      7          6           0        0.634624    0.327000   -2.049034
      8          6           0       -0.650907   -0.373411   -2.052427
      9          6           0       -1.054175   -0.588289   -0.720298
     10          6           0        2.217392    1.189445   -0.409139
     11          6           0        3.046144    1.639238   -1.455454
     12          6           0        2.648196    1.425371   -2.789783
     13          6           0        1.458330    0.766233   -3.088647
     14          6           0       -0.859681    1.475044    3.580255
     15          6           0       -1.503251    2.670385    3.266820
     16          6           0       -1.707915    3.056446    1.927914
     17          6           0       -1.245486    2.221462    0.891504
     18          6           0        1.194776   -2.228753    0.957699
     19          6           0        1.635977   -3.043612    2.018777
     20          6           0        1.401989   -2.633975    3.345719
     21          6           0        0.750610   -1.434370    3.623739
     22          6           0       -1.465341   -0.820505   -3.096141
     23          6           0       -2.656704   -1.479180   -2.803654
     24          6           0       -3.065123   -1.687241   -1.471067
     25          6           0       -2.246575   -1.227518   -0.420728
     26          7           0        4.266837    2.304481   -1.171819
     27          7           0       -2.376189    4.269948    1.624613
     28          7           0        2.311288   -4.263133    1.754156
     29          7           0       -4.284736   -2.354753   -1.194529
     30          6           0       -5.435623   -2.107208   -1.996289
     31          6           0        1.857066   -5.123471    0.715738
     32          6           0       -4.385156   -3.240399   -0.085935
     33          6           0        3.428246   -4.645505    2.547045
     34          6           0        4.348322    3.220355   -0.085585
     35          6           0        5.427677    2.032699   -1.946946
     36          6           0       -3.488060    4.686955    2.407224
     37          6           0       -1.901401    5.106485    0.574988
     38          6           0       -3.607959    6.011089    2.844651
     39          6           0       -4.711986    6.429128    3.591879
     40          6           0       -5.710483    5.511865    3.935453
     41          6           0       -5.593037    4.180087    3.510799
     42          6           0       -4.505386    3.777014    2.749560
     43          6           0        5.441667    3.205067    0.787443
     44          6           0        5.542831    4.120130    1.837751
     45          6           0        4.526720    5.057902    2.047150
     46          6           0        3.419277    5.070653    1.186000
     47          6           0        3.336322    4.173768    0.129978
     48          6           0        6.269095    3.080012   -2.360550
     49          6           0        7.418386    2.832952   -3.101217
     50          6           0        7.750769    1.510174   -3.471949
     51          6           0        6.900927    0.471600   -3.084510
     52          6           0        5.759957    0.726115   -2.319467
     53          6           0       -2.818886    5.698121   -0.316406
     54          6           0       -2.383474    6.531822   -1.340770
     55          6           0       -0.996390    6.773117   -1.513674
     56          6           0       -0.095714    6.173505   -0.637357
     57          6           0       -0.540076    5.355128    0.408952
     58          6           0        0.497961   -5.366826    0.522623
     59          6           0        0.073008   -6.209977   -0.511697
     60          6           0        0.989823   -6.840777   -1.348601
     61          6           0        2.373830   -6.606252   -1.147080
     62          6           0        2.790912   -5.746690   -0.136334
     63          6           0        4.427741   -3.721046    2.873416
     64          6           0        5.523414   -4.086627    3.658459
     65          6           0        5.649250   -5.404234    4.111777
     66          6           0        4.658957   -6.340104    3.779715
     67          6           0        3.560626   -5.964202    3.018960
     68          6           0       -3.377508   -4.187936    0.173780
     69          6           0       -3.480550   -5.057480    1.250706
     70          6           0       -4.603939   -5.022554    2.090475
     71          6           0       -5.616270   -4.091367    1.837195
     72          6           0       -5.495607   -3.204108    0.765044
     73          6           0       -5.794982   -0.811990   -2.364320
     74          6           0       -6.924478   -0.593745   -3.162811
     75          6           0       -7.723897   -1.653913   -3.581476
     76          6           0       -7.368350   -2.973184   -3.199533
     77          6           0       -6.230676   -3.187544   -2.429038
     78          1           0       -2.555753   -1.373023    0.609434
     79          1           0        1.375125   -2.534821   -0.068005
     80          1           0        1.735380   -3.270209    4.159214
     81          1           0        0.579049   -1.142558    4.656903
     82          1           0       -0.711351    1.201819    4.622068
     83          1           0       -1.852763    3.321196    4.061735
     84          1           0       -1.172834   -0.674585   -4.133046
     85          1           0       -3.286463   -1.841567   -3.609502
     86          1           0        1.173971    0.614517   -4.126964
     87          1           0        3.284551    1.783639   -3.592452
     88          1           0       -1.404279    2.508359   -0.143238
     89          1           0        2.517867    1.342949    0.622497
     90          8           0       -4.613567   -5.931346    3.112661
     91          6           0       -5.712568   -5.915625    4.007054
     92          8           0        6.684004   -5.874643    4.874176
     93          6           0        7.708021   -4.966292    5.239618
     94          8           0       -6.827469    5.807676    4.668989
     95          8           0        4.517811    5.992977    3.045248
     96          6           0        5.609109    6.012070    3.949012
     97          6           0       -6.988150    7.137716    5.129883
     98          1           0       -6.378179    3.479087    3.777152
     99          1           0       -4.432470    2.746928    2.414948
    100          1           0        6.230659    2.474245    0.640614
    101          1           0        6.410036    4.079574    2.487024
    102          1           0       -4.770263    7.464296    3.909138
    103          1           0       -2.830952    6.726293    2.593579
    104          1           0        2.638890    5.806142    1.357498
    105          1           0        2.477324    4.200032   -0.533390
    106          1           0       -6.280220   -2.476070    0.584452
    107          1           0       -6.494179   -4.032543    2.470706
    108          1           0       -2.703077   -5.787281    1.456445
    109          1           0       -2.505517   -4.230377   -0.471661
    110          1           0        6.273157   -3.339679    3.893976
    111          1           0        4.345241   -2.699694    2.514998
    112          1           0        4.763016   -7.357406    4.144584
    113          1           0        2.793097   -6.693811    2.780734
    114          1           0        7.316001   -4.132915    5.838486
    115          1           0        8.224635   -4.561312    4.358651
    116          1           0        8.417574   -5.538450    5.840601
    117          1           0        6.558487    6.213055    3.434096
    118          1           0        5.694363    5.066233    4.501077
    119          1           0        5.402962    6.821407    4.652136
    120          1           0       -7.928848    7.152798    5.683852
    121          1           0       -7.047762    7.851501    4.296810
    122          1           0       -6.169699    7.436797    5.798785
    123          1           0       -6.658943   -6.127904    3.490888
    124          1           0       -5.797203   -4.952182    4.527695
    125          1           0       -5.517166   -6.703267    4.737337
    126          8           0        3.209914   -7.256524   -2.006075
    127          1           0        3.844425   -5.545517    0.011313
    128          1           0       -0.989303   -6.383374   -0.642228
    129          1           0       -0.234287   -4.897364    1.170680
    130          1           0       -5.195371    0.030059   -2.035632
    131          1           0       -7.181142    0.422648   -3.438910
    132          8           0       -8.196345   -3.957573   -3.652180
    133          1           0       -5.940118   -4.191608   -2.146534
    134          8           0       -3.202454    7.149384   -2.239509
    135          1           0       -3.874013    5.491891   -0.188156
    136          1           0        0.968078    6.352092   -0.746732
    137          1           0        0.179226    4.908271    1.086898
    138          1           0        5.125538   -0.098703   -2.012539
    139          1           0        7.131806   -0.553504   -3.351742
    140          8           0        8.235212    3.894505   -3.411275
    141          1           0        6.044277    4.107434   -2.095670
    142          8           0        0.674374   -7.688060   -2.371639
    143          6           0       -0.696674   -7.948920   -2.610227
    144          8           0        8.909238    1.351099   -4.184199
    145          6           0        9.304776    0.032521   -4.521853
    146          8           0       -0.662290    7.594328   -2.551456
    147          6           0        0.712537    7.859168   -2.764849
    148          8           0       -8.850094   -1.541878   -4.345074
    149          6           0       -9.250644   -0.242811   -4.740722
    150          1           0       -0.727385   -8.631082   -3.462116
    151          1           0       -1.246724   -7.031184   -2.860185
    152          1           0       -1.175800   -8.428139   -1.745217
    153          1           0      -10.159642   -0.376797   -5.330394
    154          1           0       -8.486290    0.247061   -5.359742
    155          1           0       -9.471576    0.395617   -3.874129
    156          1           0        0.758434    8.518214   -3.634031
    157          1           0        1.167582    8.365306   -1.902278
    158          1           0        1.274810    6.939392   -2.976795
    159          1           0        8.570309   -0.457618   -5.175352
    160          1           0        9.455512   -0.584167   -3.625812
    161          1           0       10.252107    0.131277   -5.055307
    162          6           0       -7.896447   -5.294949   -3.292902
    163          6           0       -4.598619    6.942870   -2.116129
    164          6           0        8.324371    4.228892   -4.797519
    165          6           0        4.605082   -7.073806   -1.840448
    166          1           0       -5.058174    7.531031   -2.912868
    167          1           0       -4.865015    5.885120   -2.246431
    168          1           0       -4.975728    7.289076   -1.144319
    169          1           0       -8.683527   -5.906497   -3.738226
    170          1           0       -7.900901   -5.432646   -2.203252
    171          1           0       -6.922591   -5.612829   -3.689607
    172          1           0        5.079179   -7.693712   -2.603911
    173          1           0        4.941442   -7.398944   -0.846763
    174          1           0        4.897718   -6.025749   -1.991685
    175          1           0        7.332935    4.467920   -5.205816
    176          1           0        8.774649    3.418916   -5.379305
    177          1           0        8.959419    5.116354   -4.852590
 ---------------------------------------------------------------------
 Rotational constants (GHZ):      0.0136686      0.0125891      0.0088793
 Leave Link  202 at Tue Feb  3 15:07:13 2015, MaxMem= 2147483648 cpu:       1.3
 (Enter /opt/g09/l301.exe)
 Standard basis: CC-pVDZ (5D, 7F)
 Ernie: Thresh=  0.10000D-02 Tol=  0.10000D-05 Strict=F.
 Ernie:  202 primitive shells out of 2602 were deleted.
 There are  1794 symmetry adapted basis functions of A   symmetry.
 Integral buffers will be    131072 words long.
 Raffenetti 2 integral format.
 Two-electron integral symmetry is turned on.
  1794 basis functions,  3865 primitive gaussians,  1895 cartesian basis functions
   355 alpha electrons      354 beta electrons
       nuclear repulsion energy     18879.3730797073 Hartrees.
 IExCor=  402 DFT=T Ex+Corr=B3LYP ExCW=0 ScaHFX=  0.200000
 ScaDFX=  0.800000  0.720000  1.000000  0.810000 ScalE2=  1.000000  1.000000
 IRadAn=      0 IRanWt=     -1 IRanGd=            0 ICorTp=0
 NAtoms=  177 NActive=  177 NUniq=  177 SFac= 7.50D-01 NAtFMM=   80 NAOKFM=T Big=T
 Leave Link  301 at Tue Feb  3 15:07:13 2015, MaxMem= 2147483648 cpu:       1.4
 (Enter /opt/g09/l302.exe)
 NPDir=0 NMtPBC=     1 NCelOv=     1 NCel=       1 NClECP=     1 NCelD=      1
         NCelK=      1 NCelE2=     1 NClLst=     1 CellRange=     0.0.
 One-electron integrals computed using PRISM.
 NBasis=  1794 RedAO= T  NBF=  1794
 NBsUse=  1794 1.00D-06 NBFU=  1794
 Precomputing XC quadrature grid using
 IXCGrd= 2 IRadAn=           0 IRanWt=          -1 IRanGd=           0 AccXCQ= 1.00D-10.
 NRdTot=   11617 NPtTot=     1489478 NUsed=     1573111 NTot=     1573143
 NSgBfM=  1278  1292  1297  1305  1306 NAtAll=   177   168.
 Leave Link  302 at Tue Feb  3 15:07:39 2015, MaxMem= 2147483648 cpu:     624.5
 (Enter /opt/g09/l303.exe)
 DipDrv:  MaxL=1.
 Leave Link  303 at Tue Feb  3 15:07:41 2015, MaxMem= 2147483648 cpu:      42.9
 (Enter /opt/g09/l401.exe)
 Harris functional with IExCor=  402 diagonalized for initial guess.
 ExpMin= 1.22D-01 ExpMax= 1.17D+04 ExpMxC= 4.01D+02 IAcc=1 IRadAn=         1 AccDes= 0.00D+00
 HarFok:  IExCor=  402 AccDes= 0.00D+00 IRadAn=         1 IDoV= 1
 ScaDFX=  1.000000  1.000000  1.000000  1.000000
 FoFCou: FMM=F IPFlag=           0 FMFlag=      100000 FMFlg1=        2001
         NFxFlg=           0 DoJE=T BraDBF=F KetDBF=T FulRan=T
         Omega=  0.000000  0.000000  1.000000  0.000000  0.000000 ICntrl=     500 IOpCl=  0
         NMat0=    1 NMatS0=    1 NMatT0=    0 NMatD0=    1 NMtDS0=    0 NMtDT0=    0
         I1Cent=           4 NGrid=           0.
 Petite list used in FoFCou.
 Harris En= -4406.48992209928    
 Initial guess orbital symmetries:
 Alpha Orbitals:
       Occupied  (A) (A) (A) (A) (A) (A) (A) (A) (A) (A) (A) (A)
                 (A) (A) (A) (A) (A) (A) (A) (A) (A) (A) (A) (A)
                 (A) (A) (A) (A) (A) (A) (A) (A) (A) (A) (A) (A)
                 (A) (A) (A) (A) (A) (A) (A) (A) (A) (A) (A) (A)
                 (A) (A) (A) (A) (A) (A) (A) (A) (A) (A) (A) (A)
                 (A) (A) (A) (A) (A) (A) (A) (A) (A) (A) (A) (A)
                 (A) (A) (A) (A) (A) (A) (A) (A) (A) (A) (A) (A)
                 (A) (A) (A) (A) (A) (A) (A) (A) (A) (A) (A) (A)
                 (A) (A) (A) (A) (A) (A) (A) (A) (A) (A) (A) (A)
                 (A) (A) (A) (A) (A) (A) (A) (A) (A) (A) (A) (A)
                 (A) (A) (A) (A) (A) (A) (A) (A) (A) (A) (A) (A)
                 (A) (A) (A) (A) (A) (A) (A) (A) (A) (A) (A) (A)
                 (A) (A) (A) (A) (A) (A) (A) (A) (A) (A) (A) (A)
                 (A) (A) (A) (A) (A) (A) (A) (A) (A) (A) (A) (A)
                 (A) (A) (A) (A) (A) (A) (A) (A) (A) (A) (A) (A)
                 (A) (A) (A) (A) (A) (A) (A) (A) (A) (A) (A) (A)
                 (A) (A) (A) (A) (A) (A) (A) (A) (A) (A) (A) (A)
                 (A) (A) (A) (A) (A) (A) (A) (A) (A) (A) (A) (A)
                 (A) (A) (A) (A) (A) (A) (A) (A) (A) (A) (A) (A)
                 (A) (A) (A) (A) (A) (A) (A) (A) (A) (A) (A) (A)
                 (A) (A) (A) (A) (A) (A) (A) (A) (A) (A) (A) (A)
                 (A) (A) (A) (A) (A) (A) (A) (A) (A) (A) (A) (A)
                 (A) (A) (A) (A) (A) (A) (A) (A) (A) (A) (A) (A)
                 (A) (A) (A) (A) (A) (A) (A) (A) (A) (A) (A) (A)
                 (A) (A) (A) (A) (A) (A) (A) (A) (A) (A) (A) (A)
                 (A) (A) (A) (A) (A) (A) (A) (A) (A) (A) (A) (A)
                 (A) (A) (A) (A) (A) (A) (A) (A) (A) (A) (A) (A)
                 (A) (A) (A) (A) (A) (A) (A) (A) (A) (A) (A) (A)
                 (A) (A) (A) (A) (A) (A) (A) (A) (A) (A) (A) (A)
                 (A) (A) (A) (A) (A) (A) (A)
       Virtual   (A) (A) (A) (A) (A) (A) (A) (A) (A) (A) (A) (A)
                 (A) (A) (A) (A) (A) (A) (A) (A) (A) (A) (A) (A)
                 (A) (A) (A) (A) (A) (A) (A) (A) (A) (A) (A) (A)
                 (A) (A) (A) (A) (A) (A) (A) (A) (A) (A) (A) (A)
                 (A) (A) (A) (A) (A) (A) (A) (A) (A) (A) (A) (A)
                 (A) (A) (A) (A) (A) (A) (A) (A) (A) (A) (A) (A)
                 (A) (A) (A) (A) (A) (A) (A) (A) (A) (A) (A) (A)
                 (A) (A) (A) (A) (A) (A) (A) (A) (A) (A) (A) (A)
                 (A) (A) (A) (A) (A) (A) (A) (A) (A) (A) (A) (A)
                 (A) (A) (A) (A) (A) (A) (A) (A) (A) (A) (A) (A)
                 (A) (A) (A) (A) (A) (A) (A) (A) (A) (A) (A) (A)
                 (A) (A) (A) (A) (A) (A) (A) (A) (A) (A) (A) (A)
                 (A) (A) (A) (A) (A) (A) (A) (A) (A) (A) (A) (A)
                 (A) (A) (A) (A) (A) (A) (A) (A) (A) (A) (A) (A)
                 (A) (A) (A) (A) (A) (A) (A) (A) (A) (A) (A) (A)
                 (A) (A) (A) (A) (A) (A) (A) (A) (A) (A) (A) (A)
                 (A) (A) (A) (A) (A) (A) (A) (A) (A) (A) (A) (A)
                 (A) (A) (A) (A) (A) (A) (A) (A) (A) (A) (A) (A)
                 (A) (A) (A) (A) (A) (A) (A) (A) (A) (A) (A) (A)
                 (A) (A) (A) (A) (A) (A) (A) (A) (A) (A) (A) (A)
                 (A) (A) (A) (A) (A) (A) (A) (A) (A) (A) (A) (A)
                 (A) (A) (A) (A) (A) (A) (A) (A) (A) (A) (A) (A)
                 (A) (A) (A) (A) (A) (A) (A) (A) (A) (A) (A) (A)
                 (A) (A) (A) (A) (A) (A) (A) (A) (A) (A) (A) (A)
                 (A) (A) (A) (A) (A) (A) (A) (A) (A) (A) (A) (A)
                 (A) (A) (A) (A) (A) (A) (A) (A) (A) (A) (A) (A)
                 (A) (A) (A) (A) (A) (A) (A) (A) (A) (A) (A) (A)
                 (A) (A) (A) (A) (A) (A) (A) (A) (A) (A) (A) (A)
                 (A) (A) (A) (A) (A) (A) (A) (A) (A) (A) (A) (A)
                 (A) (A) (A) (A) (A) (A) (A) (A) (A) (A) (A) (A)
                 (A) (A) (A) (A) (A) (A) (A) (A) (A) (A) (A) (A)
                 (A) (A) (A) (A) (A) (A) (A) (A) (A) (A) (A) (A)
                 (A) (A) (A) (A) (A) (A) (A) (A) (A) (A) (A) (A)
                 (A) (A) (A) (A) (A) (A) (A) (A) (A) (A) (A) (A)
                 (A) (A) (A) (A) (A) (A) (A) (A) (A) (A) (A) (A)
                 (A) (A) (A) (A) (A) (A) (A) (A) (A) (A) (A) (A)
                 (A) (A) (A) (A) (A) (A) (A) (A) (A) (A) (A) (A)
                 (A) (A) (A) (A) (A) (A) (A) (A) (A) (A) (A) (A)
                 (A) (A) (A) (A) (A) (A) (A) (A) (A) (A) (A) (A)
                 (A) (A) (A) (A) (A) (A) (A) (A) (A) (A) (A) (A)
                 (A) (A) (A) (A) (A) (A) (A) (A) (A) (A) (A) (A)
                 (A) (A) (A) (A) (A) (A) (A) (A) (A) (A) (A) (A)
                 (A) (A) (A) (A) (A) (A) (A) (A) (A) (A) (A) (A)
                 (A) (A) (A) (A) (A) (A) (A) (A) (A) (A) (A) (A)
                 (A) (A) (A) (A) (A) (A) (A) (A) (A) (A) (A) (A)
                 (A) (A) (A) (A) (A) (A) (A) (A) (A) (A) (A) (A)
                 (A) (A) (A) (A) (A) (A) (A) (A) (A) (A) (A) (A)
                 (A) (A) (A) (A) (A) (A) (A) (A) (A) (A) (A) (A)
                 (A) (A) (A) (A) (A) (A) (A) (A) (A) (A) (A) (A)
                 (A) (A) (A) (A) (A) (A) (A) (A) (A) (A) (A) (A)
                 (A) (A) (A) (A) (A) (A) (A) (A) (A) (A) (A) (A)
                 (A) (A) (A) (A) (A) (A) (A) (A) (A) (A) (A) (A)
                 (A) (A) (A) (A) (A) (A) (A) (A) (A) (A) (A) (A)
                 (A) (A) (A) (A) (A) (A) (A) (A) (A) (A) (A) (A)
                 (A) (A) (A) (A) (A) (A) (A) (A) (A) (A) (A) (A)
                 (A) (A) (A) (A) (A) (A) (A) (A) (A) (A) (A) (A)
                 (A) (A) (A) (A) (A) (A) (A) (A) (A) (A) (A) (A)
                 (A) (A) (A) (A) (A) (A) (A) (A) (A) (A) (A) (A)
                 (A) (A) (A) (A) (A) (A) (A) (A) (A) (A) (A) (A)
                 (A) (A) (A) (A) (A) (A) (A) (A) (A) (A) (A) (A)
                 (A) (A) (A) (A) (A) (A) (A) (A) (A) (A) (A) (A)
                 (A) (A) (A) (A) (A) (A) (A) (A) (A) (A) (A) (A)
                 (A) (A) (A) (A) (A) (A) (A) (A) (A) (A) (A) (A)
                 (A) (A) (A) (A) (A) (A) (A) (A) (A) (A) (A) (A)
                 (A) (A) (A) (A) (A) (A) (A) (A) (A) (A) (A) (A)
                 (A) (A) (A) (A) (A) (A) (A) (A) (A) (A) (A) (A)
                 (A) (A) (A) (A) (A) (A) (A) (A) (A) (A) (A) (A)
                 (A) (A) (A) (A) (A) (A) (A) (A) (A) (A) (A) (A)
                 (A) (A) (A) (A) (A) (A) (A) (A) (A) (A) (A) (A)
                 (A) (A) (A) (A) (A) (A) (A) (A) (A) (A) (A) (A)
                 (A) (A) (A) (A) (A) (A) (A) (A) (A) (A) (A) (A)
                 (A) (A) (A) (A) (A) (A) (A) (A) (A) (A) (A) (A)
                 (A) (A) (A) (A) (A) (A) (A) (A) (A) (A) (A) (A)
                 (A) (A) (A) (A) (A) (A) (A) (A) (A) (A) (A) (A)
                 (A) (A) (A) (A) (A) (A) (A) (A) (A) (A) (A) (A)
                 (A) (A) (A) (A) (A) (A) (A) (A) (A) (A) (A) (A)
                 (A) (A) (A) (A) (A) (A) (A) (A) (A) (A) (A) (A)
                 (A) (A) (A) (A) (A) (A) (A) (A) (A) (A) (A) (A)
                 (A) (A) (A) (A) (A) (A) (A) (A) (A) (A) (A) (A)
                 (A) (A) (A) (A) (A) (A) (A) (A) (A) (A) (A) (A)
                 (A) (A) (A) (A) (A) (A) (A) (A) (A) (A) (A) (A)
                 (A) (A) (A) (A) (A) (A) (A) (A) (A) (A) (A) (A)
                 (A) (A) (A) (A) (A) (A) (A) (A) (A) (A) (A) (A)
                 (A) (A) (A) (A) (A) (A) (A) (A) (A) (A) (A) (A)
                 (A) (A) (A) (A) (A) (A) (A) (A) (A) (A) (A) (A)
                 (A) (A) (A) (A) (A) (A) (A) (A) (A) (A) (A) (A)
                 (A) (A) (A) (A) (A) (A) (A) (A) (A) (A) (A) (A)
                 (A) (A) (A) (A) (A) (A) (A) (A) (A) (A) (A) (A)
                 (A) (A) (A) (A) (A) (A) (A) (A) (A) (A) (A) (A)
                 (A) (A) (A) (A) (A) (A) (A) (A) (A) (A) (A) (A)
                 (A) (A) (A) (A) (A) (A) (A) (A) (A) (A) (A) (A)
                 (A) (A) (A) (A) (A) (A) (A) (A) (A) (A) (A) (A)
                 (A) (A) (A) (A) (A) (A) (A) (A) (A) (A) (A) (A)
                 (A) (A) (A) (A) (A) (A) (A) (A) (A) (A) (A) (A)
                 (A) (A) (A) (A) (A) (A) (A) (A) (A) (A) (A) (A)
                 (A) (A) (A) (A) (A) (A) (A) (A) (A) (A) (A) (A)
                 (A) (A) (A) (A) (A) (A) (A) (A) (A) (A) (A) (A)
                 (A) (A) (A) (A) (A) (A) (A) (A) (A) (A) (A) (A)
                 (A) (A) (A) (A) (A) (A) (A) (A) (A) (A) (A) (A)
                 (A) (A) (A) (A) (A) (A) (A) (A) (A) (A) (A) (A)
                 (A) (A) (A) (A) (A) (A) (A) (A) (A) (A) (A) (A)
                 (A) (A) (A) (A) (A) (A) (A) (A) (A) (A) (A) (A)
                 (A) (A) (A) (A) (A) (A) (A) (A) (A) (A) (A) (A)
                 (A) (A) (A) (A) (A) (A) (A) (A) (A) (A) (A) (A)
                 (A) (A) (A) (A) (A) (A) (A) (A) (A) (A) (A) (A)
                 (A) (A) (A) (A) (A) (A) (A) (A) (A) (A) (A) (A)
                 (A) (A) (A) (A) (A) (A) (A) (A) (A) (A) (A) (A)
                 (A) (A) (A) (A) (A) (A) (A) (A) (A) (A) (A) (A)
                 (A) (A) (A) (A) (A) (A) (A) (A) (A) (A) (A) (A)
                 (A) (A) (A) (A) (A) (A) (A) (A) (A) (A) (A) (A)
                 (A) (A) (A) (A) (A) (A) (A) (A) (A) (A) (A) (A)
                 (A) (A) (A) (A) (A) (A) (A) (A) (A) (A) (A) (A)
                 (A) (A) (A) (A) (A) (A) (A) (A) (A) (A) (A) (A)
                 (A) (A) (A) (A) (A) (A) (A) (A) (A) (A) (A) (A)
                 (A) (A) (A) (A) (A) (A) (A) (A) (A) (A) (A) (A)
                 (A) (A) (A) (A) (A) (A) (A) (A) (A) (A) (A) (A)
                 (A) (A) (A) (A) (A) (A) (A) (A) (A) (A) (A) (A)
                 (A) (A) (A) (A) (A) (A) (A) (A) (A) (A) (A) (A)
                 (A) (A) (A) (A) (A) (A) (A) (A) (A) (A) (A) (A)
                 (A) (A) (A) (A) (A) (A) (A) (A) (A) (A) (A)
 Beta  Orbitals:
       Occupied  (A) (A) (A) (A) (A) (A) (A) (A) (A) (A) (A) (A)
                 (A) (A) (A) (A) (A) (A) (A) (A) (A) (A) (A) (A)
                 (A) (A) (A) (A) (A) (A) (A) (A) (A) (A) (A) (A)
                 (A) (A) (A) (A) (A) (A) (A) (A) (A) (A) (A) (A)
                 (A) (A) (A) (A) (A) (A) (A) (A) (A) (A) (A) (A)
                 (A) (A) (A) (A) (A) (A) (A) (A) (A) (A) (A) (A)
                 (A) (A) (A) (A) (A) (A) (A) (A) (A) (A) (A) (A)
                 (A) (A) (A) (A) (A) (A) (A) (A) (A) (A) (A) (A)
                 (A) (A) (A) (A) (A) (A) (A) (A) (A) (A) (A) (A)
                 (A) (A) (A) (A) (A) (A) (A) (A) (A) (A) (A) (A)
                 (A) (A) (A) (A) (A) (A) (A) (A) (A) (A) (A) (A)
                 (A) (A) (A) (A) (A) (A) (A) (A) (A) (A) (A) (A)
                 (A) (A) (A) (A) (A) (A) (A) (A) (A) (A) (A) (A)
                 (A) (A) (A) (A) (A) (A) (A) (A) (A) (A) (A) (A)
                 (A) (A) (A) (A) (A) (A) (A) (A) (A) (A) (A) (A)
                 (A) (A) (A) (A) (A) (A) (A) (A) (A) (A) (A) (A)
                 (A) (A) (A) (A) (A) (A) (A) (A) (A) (A) (A) (A)
                 (A) (A) (A) (A) (A) (A) (A) (A) (A) (A) (A) (A)
                 (A) (A) (A) (A) (A) (A) (A) (A) (A) (A) (A) (A)
                 (A) (A) (A) (A) (A) (A) (A) (A) (A) (A) (A) (A)
                 (A) (A) (A) (A) (A) (A) (A) (A) (A) (A) (A) (A)
                 (A) (A) (A) (A) (A) (A) (A) (A) (A) (A) (A) (A)
                 (A) (A) (A) (A) (A) (A) (A) (A) (A) (A) (A) (A)
                 (A) (A) (A) (A) (A) (A) (A) (A) (A) (A) (A) (A)
                 (A) (A) (A) (A) (A) (A) (A) (A) (A) (A) (A) (A)
                 (A) (A) (A) (A) (A) (A) (A) (A) (A) (A) (A) (A)
                 (A) (A) (A) (A) (A) (A) (A) (A) (A) (A) (A) (A)
                 (A) (A) (A) (A) (A) (A) (A) (A) (A) (A) (A) (A)
                 (A) (A) (A) (A) (A) (A) (A) (A) (A) (A) (A) (A)
                 (A) (A) (A) (A) (A) (A)
       Virtual   (A) (A) (A) (A) (A) (A) (A) (A) (A) (A) (A) (A)
                 (A) (A) (A) (A) (A) (A) (A) (A) (A) (A) (A) (A)
                 (A) (A) (A) (A) (A) (A) (A) (A) (A) (A) (A) (A)
                 (A) (A) (A) (A) (A) (A) (A) (A) (A) (A) (A) (A)
                 (A) (A) (A) (A) (A) (A) (A) (A) (A) (A) (A) (A)
                 (A) (A) (A) (A) (A) (A) (A) (A) (A) (A) (A) (A)
                 (A) (A) (A) (A) (A) (A) (A) (A) (A) (A) (A) (A)
                 (A) (A) (A) (A) (A) (A) (A) (A) (A) (A) (A) (A)
                 (A) (A) (A) (A) (A) (A) (A) (A) (A) (A) (A) (A)
                 (A) (A) (A) (A) (A) (A) (A) (A) (A) (A) (A) (A)
                 (A) (A) (A) (A) (A) (A) (A) (A) (A) (A) (A) (A)
                 (A) (A) (A) (A) (A) (A) (A) (A) (A) (A) (A) (A)
                 (A) (A) (A) (A) (A) (A) (A) (A) (A) (A) (A) (A)
                 (A) (A) (A) (A) (A) (A) (A) (A) (A) (A) (A) (A)
                 (A) (A) (A) (A) (A) (A) (A) (A) (A) (A) (A) (A)
                 (A) (A) (A) (A) (A) (A) (A) (A) (A) (A) (A) (A)
                 (A) (A) (A) (A) (A) (A) (A) (A) (A) (A) (A) (A)
                 (A) (A) (A) (A) (A) (A) (A) (A) (A) (A) (A) (A)
                 (A) (A) (A) (A) (A) (A) (A) (A) (A) (A) (A) (A)
                 (A) (A) (A) (A) (A) (A) (A) (A) (A) (A) (A) (A)
                 (A) (A) (A) (A) (A) (A) (A) (A) (A) (A) (A) (A)
                 (A) (A) (A) (A) (A) (A) (A) (A) (A) (A) (A) (A)
                 (A) (A) (A) (A) (A) (A) (A) (A) (A) (A) (A) (A)
                 (A) (A) (A) (A) (A) (A) (A) (A) (A) (A) (A) (A)
                 (A) (A) (A) (A) (A) (A) (A) (A) (A) (A) (A) (A)
                 (A) (A) (A) (A) (A) (A) (A) (A) (A) (A) (A) (A)
                 (A) (A) (A) (A) (A) (A) (A) (A) (A) (A) (A) (A)
                 (A) (A) (A) (A) (A) (A) (A) (A) (A) (A) (A) (A)
                 (A) (A) (A) (A) (A) (A) (A) (A) (A) (A) (A) (A)
                 (A) (A) (A) (A) (A) (A) (A) (A) (A) (A) (A) (A)
                 (A) (A) (A) (A) (A) (A) (A) (A) (A) (A) (A) (A)
                 (A) (A) (A) (A) (A) (A) (A) (A) (A) (A) (A) (A)
                 (A) (A) (A) (A) (A) (A) (A) (A) (A) (A) (A) (A)
                 (A) (A) (A) (A) (A) (A) (A) (A) (A) (A) (A) (A)
                 (A) (A) (A) (A) (A) (A) (A) (A) (A) (A) (A) (A)
                 (A) (A) (A) (A) (A) (A) (A) (A) (A) (A) (A) (A)
                 (A) (A) (A) (A) (A) (A) (A) (A) (A) (A) (A) (A)
                 (A) (A) (A) (A) (A) (A) (A) (A) (A) (A) (A) (A)
                 (A) (A) (A) (A) (A) (A) (A) (A) (A) (A) (A) (A)
                 (A) (A) (A) (A) (A) (A) (A) (A) (A) (A) (A) (A)
                 (A) (A) (A) (A) (A) (A) (A) (A) (A) (A) (A) (A)
                 (A) (A) (A) (A) (A) (A) (A) (A) (A) (A) (A) (A)
                 (A) (A) (A) (A) (A) (A) (A) (A) (A) (A) (A) (A)
                 (A) (A) (A) (A) (A) (A) (A) (A) (A) (A) (A) (A)
                 (A) (A) (A) (A) (A) (A) (A) (A) (A) (A) (A) (A)
                 (A) (A) (A) (A) (A) (A) (A) (A) (A) (A) (A) (A)
                 (A) (A) (A) (A) (A) (A) (A) (A) (A) (A) (A) (A)
                 (A) (A) (A) (A) (A) (A) (A) (A) (A) (A) (A) (A)
                 (A) (A) (A) (A) (A) (A) (A) (A) (A) (A) (A) (A)
                 (A) (A) (A) (A) (A) (A) (A) (A) (A) (A) (A) (A)
                 (A) (A) (A) (A) (A) (A) (A) (A) (A) (A) (A) (A)
                 (A) (A) (A) (A) (A) (A) (A) (A) (A) (A) (A) (A)
                 (A) (A) (A) (A) (A) (A) (A) (A) (A) (A) (A) (A)
                 (A) (A) (A) (A) (A) (A) (A) (A) (A) (A) (A) (A)
                 (A) (A) (A) (A) (A) (A) (A) (A) (A) (A) (A) (A)
                 (A) (A) (A) (A) (A) (A) (A) (A) (A) (A) (A) (A)
                 (A) (A) (A) (A) (A) (A) (A) (A) (A) (A) (A) (A)
                 (A) (A) (A) (A) (A) (A) (A) (A) (A) (A) (A) (A)
                 (A) (A) (A) (A) (A) (A) (A) (A) (A) (A) (A) (A)
                 (A) (A) (A) (A) (A) (A) (A) (A) (A) (A) (A) (A)
                 (A) (A) (A) (A) (A) (A) (A) (A) (A) (A) (A) (A)
                 (A) (A) (A) (A) (A) (A) (A) (A) (A) (A) (A) (A)
                 (A) (A) (A) (A) (A) (A) (A) (A) (A) (A) (A) (A)
                 (A) (A) (A) (A) (A) (A) (A) (A) (A) (A) (A) (A)
                 (A) (A) (A) (A) (A) (A) (A) (A) (A) (A) (A) (A)
                 (A) (A) (A) (A) (A) (A) (A) (A) (A) (A) (A) (A)
                 (A) (A) (A) (A) (A) (A) (A) (A) (A) (A) (A) (A)
                 (A) (A) (A) (A) (A) (A) (A) (A) (A) (A) (A) (A)
                 (A) (A) (A) (A) (A) (A) (A) (A) (A) (A) (A) (A)
                 (A) (A) (A) (A) (A) (A) (A) (A) (A) (A) (A) (A)
                 (A) (A) (A) (A) (A) (A) (A) (A) (A) (A) (A) (A)
                 (A) (A) (A) (A) (A) (A) (A) (A) (A) (A) (A) (A)
                 (A) (A) (A) (A) (A) (A) (A) (A) (A) (A) (A) (A)
                 (A) (A) (A) (A) (A) (A) (A) (A) (A) (A) (A) (A)
                 (A) (A) (A) (A) (A) (A) (A) (A) (A) (A) (A) (A)
                 (A) (A) (A) (A) (A) (A) (A) (A) (A) (A) (A) (A)
                 (A) (A) (A) (A) (A) (A) (A) (A) (A) (A) (A) (A)
                 (A) (A) (A) (A) (A) (A) (A) (A) (A) (A) (A) (A)
                 (A) (A) (A) (A) (A) (A) (A) (A) (A) (A) (A) (A)
                 (A) (A) (A) (A) (A) (A) (A) (A) (A) (A) (A) (A)
                 (A) (A) (A) (A) (A) (A) (A) (A) (A) (A) (A) (A)
                 (A) (A) (A) (A) (A) (A) (A) (A) (A) (A) (A) (A)
                 (A) (A) (A) (A) (A) (A) (A) (A) (A) (A) (A) (A)
                 (A) (A) (A) (A) (A) (A) (A) (A) (A) (A) (A) (A)
                 (A) (A) (A) (A) (A) (A) (A) (A) (A) (A) (A) (A)
                 (A) (A) (A) (A) (A) (A) (A) (A) (A) (A) (A) (A)
                 (A) (A) (A) (A) (A) (A) (A) (A) (A) (A) (A) (A)
                 (A) (A) (A) (A) (A) (A) (A) (A) (A) (A) (A) (A)
                 (A) (A) (A) (A) (A) (A) (A) (A) (A) (A) (A) (A)
                 (A) (A) (A) (A) (A) (A) (A) (A) (A) (A) (A) (A)
                 (A) (A) (A) (A) (A) (A) (A) (A) (A) (A) (A) (A)
                 (A) (A) (A) (A) (A) (A) (A) (A) (A) (A) (A) (A)
                 (A) (A) (A) (A) (A) (A) (A) (A) (A) (A) (A) (A)
                 (A) (A) (A) (A) (A) (A) (A) (A) (A) (A) (A) (A)
                 (A) (A) (A) (A) (A) (A) (A) (A) (A) (A) (A) (A)
                 (A) (A) (A) (A) (A) (A) (A) (A) (A) (A) (A) (A)
                 (A) (A) (A) (A) (A) (A) (A) (A) (A) (A) (A) (A)
                 (A) (A) (A) (A) (A) (A) (A) (A) (A) (A) (A) (A)
                 (A) (A) (A) (A) (A) (A) (A) (A) (A) (A) (A) (A)
                 (A) (A) (A) (A) (A) (A) (A) (A) (A) (A) (A) (A)
                 (A) (A) (A) (A) (A) (A) (A) (A) (A) (A) (A) (A)
                 (A) (A) (A) (A) (A) (A) (A) (A) (A) (A) (A) (A)
                 (A) (A) (A) (A) (A) (A) (A) (A) (A) (A) (A) (A)
                 (A) (A) (A) (A) (A) (A) (A) (A) (A) (A) (A) (A)
                 (A) (A) (A) (A) (A) (A) (A) (A) (A) (A) (A) (A)
                 (A) (A) (A) (A) (A) (A) (A) (A) (A) (A) (A) (A)
                 (A) (A) (A) (A) (A) (A) (A) (A) (A) (A) (A) (A)
                 (A) (A) (A) (A) (A) (A) (A) (A) (A) (A) (A) (A)
                 (A) (A) (A) (A) (A) (A) (A) (A) (A) (A) (A) (A)
                 (A) (A) (A) (A) (A) (A) (A) (A) (A) (A) (A) (A)
                 (A) (A) (A) (A) (A) (A) (A) (A) (A) (A) (A) (A)
                 (A) (A) (A) (A) (A) (A) (A) (A) (A) (A) (A) (A)
                 (A) (A) (A) (A) (A) (A) (A) (A) (A) (A) (A) (A)
                 (A) (A) (A) (A) (A) (A) (A) (A) (A) (A) (A) (A)
                 (A) (A) (A) (A) (A) (A) (A) (A) (A) (A) (A) (A)
                 (A) (A) (A) (A) (A) (A) (A) (A) (A) (A) (A) (A)
                 (A) (A) (A) (A) (A) (A) (A) (A) (A) (A) (A) (A)
                 (A) (A) (A) (A) (A) (A) (A) (A) (A) (A) (A) (A)
                 (A) (A) (A) (A) (A) (A) (A) (A) (A) (A) (A) (A)
                 (A) (A) (A) (A) (A) (A) (A) (A) (A) (A) (A) (A)
 The electronic state of the initial guess is 2-A.
 Initial guess <Sx>= 0.0000 <Sy>= 0.0000 <Sz>= 0.5000 <S**2>= 0.7500 S= 0.5000
 Leave Link  401 at Tue Feb  3 15:08:10 2015, MaxMem= 2147483648 cpu:     687.3
 (Enter /opt/g09/l502.exe)
 UHF open shell SCF:
 Requested convergence on RMS density matrix=1.00D-08 within 128 cycles.
 Requested convergence on MAX density matrix=1.00D-06.
 Requested convergence on             energy=1.00D-06.
 No special actions if energy rises.
 Using DIIS extrapolation, IDIIS=  1040.
 Integral symmetry usage will be decided dynamically.
      1571505 words used for storage of precomputed grid.
 IEnd=    12422558 IEndB=    12422558 NGot=  2147483648 MDV=  2138670651
 LenX=  2138670651 LenY=  2135077731
 Fock matrices will be formed incrementally for  20 cycles.
 Integral accuracy reduced to 1.0D-05 until final iterations.

 Cycle   1  Pass 0  IDiag  1:
 FoFCou: FMM=T IPFlag=           0 FMFlag=      100000 FMFlg1=        2001
         NFxFlg=           0 DoJE=F BraDBF=F KetDBF=F FulRan=T
         Omega=  0.000000  0.000000  1.000000  0.000000  0.000000 ICntrl=       0 IOpCl=  1
         NMat0=    1 NMatS0=    1 NMatT0=    0 NMatD0=    1 NMtDS0=    0 NMtDT0=    0
         I1Cent=           0 NGrid=           0.
 Symmetry not used in FoFCou.
 FMM levels:  10  Number of levels for PrismC:   9
 E= -4404.59936863131    
 DIIS: error= 2.33D-02 at cycle   1 NSaved=   1.
 NSaved= 1 IEnMin= 1 EnMin= -4404.59936863131     IErMin= 1 ErrMin= 2.33D-02
 ErrMax= 2.33D-02 EMaxC= 1.00D-01 BMatC= 6.52D+00 BMatP= 6.52D+00
 IDIUse=3 WtCom= 7.67D-01 WtEn= 2.33D-01
 Coeff-Com:  0.100D+01
 Coeff-En:   0.100D+01
 Coeff:      0.100D+01
 Gap=     0.149 Goal=   None    Shift=    0.000
 Gap=     0.015 Goal=   None    Shift=    0.000
 GapD=    0.015 DampG=0.250 DampE=0.500 DampFc=0.2500 IDamp=-1.
 Damping current iteration by 2.50D-01
 RMSDP=2.01D-03 MaxDP=1.99D-01              OVMax= 1.83D-01

 Cycle   2  Pass 0  IDiag  1:
 RMSU=  3.39D-04    CP:  9.81D-01
 E= -4405.24447767849     Delta-E=       -0.645109047186 Rises=F Damp=T
 DIIS: error= 1.22D-02 at cycle   2 NSaved=   2.
 NSaved= 2 IEnMin= 2 EnMin= -4405.24447767849     IErMin= 2 ErrMin= 1.22D-02
 ErrMax= 1.22D-02 EMaxC= 1.00D-01 BMatC= 1.83D+00 BMatP= 6.52D+00
 IDIUse=3 WtCom= 8.78D-01 WtEn= 1.22D-01
 Coeff-Com: -0.933D+00 0.193D+01
 Coeff-En:   0.000D+00 0.100D+01
 Coeff:     -0.820D+00 0.182D+01
 Gap=     0.125 Goal=   None    Shift=    0.000
 Gap=     0.015 Goal=   None    Shift=    0.000
 RMSDP=1.01D-03 MaxDP=1.37D-01 DE=-6.45D-01 OVMax= 1.69D-01

 Cycle   3  Pass 0  IDiag  1:
 RMSU=  3.86D-04    CP:  9.38D-01  2.62D+00
 E= -4406.32658149783     Delta-E=       -1.082103819339 Rises=F Damp=F
 DIIS: error= 5.54D-03 at cycle   3 NSaved=   3.
 NSaved= 3 IEnMin= 3 EnMin= -4406.32658149783     IErMin= 3 ErrMin= 5.54D-03
 ErrMax= 5.54D-03 EMaxC= 1.00D-01 BMatC= 3.47D-01 BMatP= 1.83D+00
 IDIUse=3 WtCom= 9.45D-01 WtEn= 5.54D-02
 Coeff-Com: -0.474D+00 0.950D+00 0.524D+00
 Coeff-En:   0.000D+00 0.000D+00 0.100D+01
 Coeff:     -0.448D+00 0.897D+00 0.550D+00
 Gap=     0.139 Goal=   None    Shift=    0.000
 Gap=     0.014 Goal=   None    Shift=    0.000
 RMSDP=3.15D-04 MaxDP=4.03D-02 DE=-1.08D+00 OVMax= 1.66D-01

 Cycle   4  Pass 0  IDiag  1:
 RMSU=  1.66D-04    CP:  9.41D-01  2.52D+00  6.45D-01
 E= -4406.38230517797     Delta-E=       -0.055723680140 Rises=F Damp=F
 DIIS: error= 3.32D-03 at cycle   4 NSaved=   4.
 NSaved= 4 IEnMin= 4 EnMin= -4406.38230517797     IErMin= 4 ErrMin= 3.32D-03
 ErrMax= 3.32D-03 EMaxC= 1.00D-01 BMatC= 1.26D-01 BMatP= 3.47D-01
 IDIUse=3 WtCom= 9.67D-01 WtEn= 3.32D-02
 Coeff-Com: -0.147D+00 0.297D+00 0.374D+00 0.476D+00
 Coeff-En:   0.000D+00 0.000D+00 0.308D+00 0.692D+00
 Coeff:     -0.142D+00 0.287D+00 0.372D+00 0.483D+00
 Gap=     0.132 Goal=   None    Shift=    0.000
 Gap=     0.014 Goal=   None    Shift=    0.000
 RMSDP=1.85D-04 MaxDP=2.41D-02 DE=-5.57D-02 OVMax= 2.32D-01

 Cycle   5  Pass 0  IDiag  1:
 RMSU=  5.91D-05    CP:  9.41D-01  2.50D+00  7.66D-01  4.45D-01
 E= -4406.40816764870     Delta-E=       -0.025862470731 Rises=F Damp=F
 DIIS: error= 1.52D-03 at cycle   5 NSaved=   5.
 NSaved= 5 IEnMin= 5 EnMin= -4406.40816764870     IErMin= 5 ErrMin= 1.52D-03
 ErrMax= 1.52D-03 EMaxC= 1.00D-01 BMatC= 2.85D-02 BMatP= 1.26D-01
 IDIUse=3 WtCom= 9.85D-01 WtEn= 1.52D-02
 Coeff-Com: -0.457D-01 0.945D-01 0.216D+00 0.366D+00 0.370D+00
 Coeff-En:   0.000D+00 0.000D+00 0.000D+00 0.215D+00 0.785D+00
 Coeff:     -0.450D-01 0.930D-01 0.212D+00 0.364D+00 0.376D+00
 Gap=     0.134 Goal=   None    Shift=    0.000
 Gap=     0.013 Goal=   None    Shift=    0.000
 RMSDP=1.27D-04 MaxDP=1.34D-02 DE=-2.59D-02 OVMax= 2.30D-01

 Cycle   6  Pass 0  IDiag  1:
 RMSU=  3.14D-05    CP:  9.41D-01  2.51D+00  7.45D-01  6.19D-01  2.96D-02
 E= -4406.41487870604     Delta-E=       -0.006711057333 Rises=F Damp=F
 DIIS: error= 9.73D-04 at cycle   6 NSaved=   6.
 NSaved= 6 IEnMin= 6 EnMin= -4406.41487870604     IErMin= 6 ErrMin= 9.73D-04
 ErrMax= 9.73D-04 EMaxC= 1.00D-01 BMatC= 5.83D-03 BMatP= 2.85D-02
 IDIUse=3 WtCom= 9.90D-01 WtEn= 9.73D-03
 Coeff-Com: -0.134D-01 0.291D-01 0.113D+00 0.214D+00 0.302D+00 0.356D+00
 Coeff-En:   0.000D+00 0.000D+00 0.000D+00 0.000D+00 0.222D+00 0.778D+00
 Coeff:     -0.132D-01 0.288D-01 0.111D+00 0.212D+00 0.302D+00 0.360D+00
 Gap=     0.130 Goal=   None    Shift=    0.000
 Gap=     0.014 Goal=   None    Shift=    0.000
 RMSDP=7.96D-05 MaxDP=9.03D-03 DE=-6.71D-03 OVMax= 1.61D-01

 Cycle   7  Pass 0  IDiag  1:
 RMSU=  1.79D-05    CP:  9.41D-01  2.52D+00  7.55D-01  5.51D-01  5.10D-01
                    CP:  8.57D-02
 E= -4406.41618138861     Delta-E=       -0.001302682569 Rises=F Damp=F
 DIIS: error= 5.43D-04 at cycle   7 NSaved=   7.
 NSaved= 7 IEnMin= 7 EnMin= -4406.41618138861     IErMin= 7 ErrMin= 5.43D-04
 ErrMax= 5.43D-04 EMaxC= 1.00D-01 BMatC= 1.97D-03 BMatP= 5.83D-03
 IDIUse=3 WtCom= 9.95D-01 WtEn= 5.43D-03
 Coeff-Com:  0.234D-02-0.330D-02 0.347D-01 0.771D-01 0.160D+00 0.341D+00
 Coeff-Com:  0.388D+00
 Coeff-En:   0.000D+00 0.000D+00 0.000D+00 0.000D+00 0.000D+00 0.310D+00
 Coeff-En:   0.690D+00
 Coeff:      0.233D-02-0.328D-02 0.345D-01 0.767D-01 0.159D+00 0.341D+00
 Coeff:      0.390D+00
 Gap=     0.129 Goal=   None    Shift=    0.000
 Gap=     0.014 Goal=   None    Shift=    0.000
 RMSDP=3.34D-05 MaxDP=3.48D-03 DE=-1.30D-03 OVMax= 6.58D-02

 Cycle   8  Pass 0  IDiag  1:
 RMSU=  5.37D-06    CP:  9.41D-01  2.52D+00  7.55D-01  5.77D-01  3.54D-01
                    CP:  4.65D-01  4.20D-01
 E= -4406.41680050531     Delta-E=       -0.000619116709 Rises=F Damp=F
 DIIS: error= 9.36D-05 at cycle   8 NSaved=   8.
 NSaved= 8 IEnMin= 8 EnMin= -4406.41680050531     IErMin= 8 ErrMin= 9.36D-05
 ErrMax= 9.36D-05 EMaxC= 1.00D-01 BMatC= 1.55D-04 BMatP= 1.97D-03
 IDIUse=1 WtCom= 1.00D+00 WtEn= 0.00D+00
 Coeff-Com:  0.315D-02-0.556D-02 0.124D-01 0.307D-01 0.807D-01 0.205D+00
 Coeff-Com:  0.279D+00 0.394D+00
 Coeff:      0.315D-02-0.556D-02 0.124D-01 0.307D-01 0.807D-01 0.205D+00
 Coeff:      0.279D+00 0.394D+00
 Gap=     0.127 Goal=   None    Shift=    0.000
 Gap=     0.014 Goal=   None    Shift=    0.000
 RMSDP=7.89D-06 MaxDP=8.94D-04 DE=-6.19D-04 OVMax= 1.05D-02

 Initial convergence to 1.0D-05 achieved.  Increase integral accuracy.
 Cycle   9  Pass 1  IDiag  1:
 E= -4406.41657427103     Delta-E=        0.000226234282 Rises=F Damp=F
 DIIS: error= 3.58D-04 at cycle   1 NSaved=   1.
 NSaved= 1 IEnMin= 1 EnMin= -4406.41657427103     IErMin= 1 ErrMin= 3.58D-04
 ErrMax= 3.58D-04 EMaxC= 1.00D-01 BMatC= 4.92D-04 BMatP= 4.92D-04
 IDIUse=3 WtCom= 9.96D-01 WtEn= 3.58D-03
 Coeff-Com:  0.100D+01
 Coeff-En:   0.100D+01
 Coeff:      0.100D+01
 Gap=     0.127 Goal=   None    Shift=    0.000
 Gap=     0.015 Goal=   None    Shift=    0.000
 RMSDP=7.89D-06 MaxDP=8.94D-04 DE= 2.26D-04 OVMax= 1.61D-02

 Cycle  10  Pass 1  IDiag  1:
 RMSU=  1.08D-04    CP:  9.99D-01
 E= -4406.41660846549     Delta-E=       -0.000034194454 Rises=F Damp=F
 DIIS: error= 2.50D-04 at cycle   2 NSaved=   2.
 NSaved= 2 IEnMin= 2 EnMin= -4406.41660846549     IErMin= 2 ErrMin= 2.50D-04
 ErrMax= 2.50D-04 EMaxC= 1.00D-01 BMatC= 2.43D-04 BMatP= 4.92D-04
 IDIUse=3 WtCom= 9.97D-01 WtEn= 2.50D-03
 Coeff-Com:  0.356D+00 0.644D+00
 Coeff-En:   0.329D+00 0.671D+00
 Coeff:      0.356D+00 0.644D+00
 Gap=     0.128 Goal=   None    Shift=    0.000
 Gap=     0.015 Goal=   None    Shift=    0.000
 RMSDP=2.52D-05 MaxDP=3.40D-03 DE=-3.42D-05 OVMax= 3.72D-02

 Cycle  11  Pass 1  IDiag  1:
 RMSU=  9.25D-06    CP:  9.99D-01  9.96D-01
 E= -4406.41636272253     Delta-E=        0.000245742958 Rises=F Damp=F
 DIIS: error= 5.05D-04 at cycle   3 NSaved=   3.
 NSaved= 3 IEnMin= 2 EnMin= -4406.41660846549     IErMin= 2 ErrMin= 2.50D-04
 ErrMax= 5.05D-04 EMaxC= 1.00D-01 BMatC= 9.86D-04 BMatP= 2.43D-04
 IDIUse=3 WtCom= 3.08D-01 WtEn= 6.92D-01
 Coeff-Com:  0.781D-03 0.668D+00 0.331D+00
 Coeff-En:   0.000D+00 0.716D+00 0.284D+00
 Coeff:      0.240D-03 0.701D+00 0.298D+00
 Gap=     0.128 Goal=   None    Shift=    0.000
 Gap=     0.015 Goal=   None    Shift=    0.000
 RMSDP=1.53D-05 MaxDP=2.09D-03 DE= 2.46D-04 OVMax= 2.10D-02

 Cycle  12  Pass 1  IDiag  1:
 RMSU=  1.10D-06    CP:  9.99D-01  1.01D+00  4.07D-01
 E= -4406.41667601958     Delta-E=       -0.000313297049 Rises=F Damp=F
 DIIS: error= 9.93D-05 at cycle   4 NSaved=   4.
 NSaved= 4 IEnMin= 4 EnMin= -4406.41667601958     IErMin= 4 ErrMin= 9.93D-05
 ErrMax= 9.93D-05 EMaxC= 1.00D-01 BMatC= 3.89D-05 BMatP= 2.43D-04
 IDIUse=1 WtCom= 1.00D+00 WtEn= 0.00D+00
 Coeff-Com: -0.425D-02 0.516D+00 0.211D+00 0.277D+00
 Coeff:     -0.425D-02 0.516D+00 0.211D+00 0.277D+00
 Gap=     0.127 Goal=   None    Shift=    0.000
 Gap=     0.015 Goal=   None    Shift=    0.000
 RMSDP=3.33D-06 MaxDP=4.52D-04 DE=-3.13D-04 OVMax= 4.97D-03

 Cycle  13  Pass 1  IDiag  1:
 RMSU=  5.78D-07    CP:  9.99D-01  1.01D+00  3.33D-01  7.38D-02
 E= -4406.41668781734     Delta-E=       -0.000011797762 Rises=F Damp=F
 DIIS: error= 1.37D-05 at cycle   5 NSaved=   5.
 NSaved= 5 IEnMin= 5 EnMin= -4406.41668781734     IErMin= 5 ErrMin= 1.37D-05
 ErrMax= 1.37D-05 EMaxC= 1.00D-01 BMatC= 1.49D-06 BMatP= 3.89D-05
 IDIUse=1 WtCom= 1.00D+00 WtEn= 0.00D+00
 Coeff-Com: -0.355D-02 0.329D+00 0.127D+00 0.221D+00 0.326D+00
 Coeff:     -0.355D-02 0.329D+00 0.127D+00 0.221D+00 0.326D+00
 Gap=     0.127 Goal=   None    Shift=    0.000
 Gap=     0.015 Goal=   None    Shift=    0.000
 RMSDP=8.95D-07 MaxDP=1.16D-04 DE=-1.18D-05 OVMax= 1.66D-03

 Cycle  14  Pass 1  IDiag  1:
 RMSU=  2.31D-07    CP:  9.99D-01  1.01D+00  3.27D-01  3.23D-01  5.49D-01
 E= -4406.41668828878     Delta-E=       -0.000000471442 Rises=F Damp=F
 DIIS: error= 4.55D-06 at cycle   6 NSaved=   6.
 NSaved= 6 IEnMin= 6 EnMin= -4406.41668828878     IErMin= 6 ErrMin= 4.55D-06
 ErrMax= 4.55D-06 EMaxC= 1.00D-01 BMatC= 1.34D-07 BMatP= 1.49D-06
 IDIUse=1 WtCom= 1.00D+00 WtEn= 0.00D+00
 Coeff-Com: -0.729D-03 0.347D-01 0.106D-01 0.392D-01 0.198D+00 0.718D+00
 Coeff:     -0.729D-03 0.347D-01 0.106D-01 0.392D-01 0.198D+00 0.718D+00
 Gap=     0.127 Goal=   None    Shift=    0.000
 Gap=     0.015 Goal=   None    Shift=    0.000
 RMSDP=3.04D-07 MaxDP=3.03D-05 DE=-4.71D-07 OVMax= 3.85D-04

 Cycle  15  Pass 1  IDiag  1:
 RMSU=  1.44D-07    CP:  9.99D-01  1.01D+00  3.30D-01  2.89D-01  7.59D-01
                    CP:  8.80D-01
 E= -4406.41668836323     Delta-E=       -0.000000074448 Rises=F Damp=F
 DIIS: error= 2.99D-06 at cycle   7 NSaved=   7.
 NSaved= 7 IEnMin= 7 EnMin= -4406.41668836323     IErMin= 7 ErrMin= 2.99D-06
 ErrMax= 2.99D-06 EMaxC= 1.00D-01 BMatC= 1.06D-07 BMatP= 1.34D-07
 IDIUse=1 WtCom= 1.00D+00 WtEn= 0.00D+00
 Coeff-Com:  0.154D-02-0.174D+00-0.714D-01-0.998D-01-0.210D-02 0.701D+00
 Coeff-Com:  0.646D+00
 Coeff:      0.154D-02-0.174D+00-0.714D-01-0.998D-01-0.210D-02 0.701D+00
 Coeff:      0.646D+00
 Gap=     0.127 Goal=   None    Shift=    0.000
 Gap=     0.015 Goal=   None    Shift=    0.000
 RMSDP=2.63D-07 MaxDP=2.77D-05 DE=-7.44D-08 OVMax= 2.20D-04

 Cycle  16  Pass 1  IDiag  1:
 RMSU=  9.98D-08    CP:  9.99D-01  1.01D+00  3.30D-01  3.05D-01  8.39D-01
                    CP:  1.38D+00  9.42D-01
 E= -4406.41668842719     Delta-E=       -0.000000063963 Rises=F Damp=F
 DIIS: error= 1.92D-06 at cycle   8 NSaved=   8.
 NSaved= 8 IEnMin= 8 EnMin= -4406.41668842719     IErMin= 8 ErrMin= 1.92D-06
 ErrMax= 1.92D-06 EMaxC= 1.00D-01 BMatC= 3.51D-08 BMatP= 1.06D-07
 IDIUse=1 WtCom= 1.00D+00 WtEn= 0.00D+00
 Coeff-Com:  0.143D-02-0.147D+00-0.599D-01-0.891D-01-0.731D-01 0.297D+00
 Coeff-Com:  0.501D+00 0.570D+00
 Coeff:      0.143D-02-0.147D+00-0.599D-01-0.891D-01-0.731D-01 0.297D+00
 Coeff:      0.501D+00 0.570D+00
 Gap=     0.127 Goal=   None    Shift=    0.000
 Gap=     0.015 Goal=   None    Shift=    0.000
 RMSDP=1.65D-07 MaxDP=1.72D-05 DE=-6.40D-08 OVMax= 2.02D-04

 Cycle  17  Pass 1  IDiag  1:
 RMSU=  5.98D-08    CP:  9.99D-01  1.01D+00  3.30D-01  3.11D-01  9.14D-01
                    CP:  1.45D+00  1.44D+00  7.91D-01
 E= -4406.41668844470     Delta-E=       -0.000000017513 Rises=F Damp=F
 DIIS: error= 1.35D-06 at cycle   9 NSaved=   9.
 NSaved= 9 IEnMin= 9 EnMin= -4406.41668844470     IErMin= 9 ErrMin= 1.35D-06
 ErrMax= 1.35D-06 EMaxC= 1.00D-01 BMatC= 1.80D-08 BMatP= 3.51D-08
 IDIUse=1 WtCom= 1.00D+00 WtEn= 0.00D+00
 Coeff-Com:  0.677D-03-0.642D-01-0.264D-01-0.399D-01-0.655D-01 0.431D-02
 Coeff-Com:  0.196D+00 0.502D+00 0.493D+00
 Coeff:      0.677D-03-0.642D-01-0.264D-01-0.399D-01-0.655D-01 0.431D-02
 Coeff:      0.196D+00 0.502D+00 0.493D+00
 Gap=     0.127 Goal=   None    Shift=    0.000
 Gap=     0.015 Goal=   None    Shift=    0.000
 RMSDP=9.15D-08 MaxDP=1.33D-05 DE=-1.75D-08 OVMax= 1.07D-04

 Cycle  18  Pass 1  IDiag  1:
 RMSU=  3.02D-08    CP:  9.99D-01  1.01D+00  3.30D-01  3.15D-01  9.35D-01
                    CP:  1.54D+00  1.49D+00  1.13D+00  6.29D-01
 E= -4406.41668845226     Delta-E=       -0.000000007552 Rises=F Damp=F
 DIIS: error= 3.96D-07 at cycle  10 NSaved=  10.
 NSaved=10 IEnMin=10 EnMin= -4406.41668845226     IErMin=10 ErrMin= 3.96D-07
 ErrMax= 3.96D-07 EMaxC= 1.00D-01 BMatC= 2.94D-09 BMatP= 1.80D-08
 IDIUse=1 WtCom= 1.00D+00 WtEn= 0.00D+00
 Coeff-Com:  0.487D-04-0.152D-02-0.853D-03-0.118D-02-0.267D-01-0.848D-01
 Coeff-Com: -0.145D-01 0.190D+00 0.350D+00 0.589D+00
 Coeff:      0.487D-04-0.152D-02-0.853D-03-0.118D-02-0.267D-01-0.848D-01
 Coeff:     -0.145D-01 0.190D+00 0.350D+00 0.589D+00
 Gap=     0.127 Goal=   None    Shift=    0.000
 Gap=     0.015 Goal=   None    Shift=    0.000
 RMSDP=3.64D-08 MaxDP=4.32D-06 DE=-7.55D-09 OVMax= 3.46D-05

 Cycle  19  Pass 1  IDiag  1:
 RMSU=  1.30D-08    CP:  9.99D-01  1.01D+00  3.29D-01  3.17D-01  9.45D-01
                    CP:  1.57D+00  1.57D+00  1.15D+00  8.17D-01  7.31D-01
[...]
     5  C    0.000000   0.000000   0.000000
     6  C    0.000000   0.000000   0.000000
     7  C    0.000000   0.000000   0.000000
     8  C    0.000000   0.000000   0.000000
     9  C    0.000000   0.000000   0.000000
    10  C    0.000000   0.000000   0.000000
    11  C    0.000000   0.000000   0.000000
    12  C    0.000000   0.000000   0.000000
    13  C    0.000000   0.000000   0.000000
    14  C    0.000000   0.000000   0.000000
    15  C    0.000000   0.000000   0.000000
    16  C    0.000000   0.000000   0.000000
    17  C    0.000000   0.000000   0.000000
    18  C    0.000000   0.000000   0.000000
    19  C    0.000000   0.000000   0.000000
    20  C    0.000000   0.000000   0.000000
    21  C    0.000000   0.000000   0.000000
    22  C    0.000000   0.000000   0.000000
    23  C    0.000000   0.000000   0.000000
    24  C    0.000000   0.000000   0.000000
    25  C    0.000000   0.000000   0.000000
    26  N    0.000000   0.000000   0.000000
    27  N    0.000000   0.000000   0.000000
    28  N    0.000000   0.000000   0.000000
    29  N    0.000000   0.000000   0.000000
    30  C    0.000000   0.000000   0.000000
    31  C    0.000000   0.000000   0.000000
    32  C    0.000000   0.000000   0.000000
    33  C    0.000000   0.000000   0.000000
    34  C    0.000000   0.000000   0.000000
    35  C    0.000003   0.000000   0.000000
    36  C    0.000000   0.000000   0.000000
    37  C    0.000000   0.000000   0.000000
    38  C    0.000000   0.000000   0.000000
    39  C    0.000000   0.000000   0.000000
    40  C    0.000000   0.000000   0.000000
    41  C    0.000000   0.000000   0.000000
    42  C    0.000000   0.000000   0.000000
    43  C    0.000000   0.000000   0.000000
    44  C    0.000000   0.000000   0.000000
    45  C    0.000000   0.000000   0.000000
    46  C    0.000000   0.000000   0.000000
    47  C    0.000000   0.000000   0.000000
    48  C   -0.000054   0.000017  -0.000001
    49  C   -0.000038  -0.000051  -0.000006
    50  C    0.000045  -0.000131   0.000001
    51  C    0.000002  -0.000007   0.000000
    52  C    0.000000   0.000000   0.000000
    53  C    0.000000   0.000000   0.000000
    54  C    0.000000   0.000000   0.000000
    55  C    0.000000   0.000000   0.000000
    56  C    0.000000   0.000000   0.000000
    57  C    0.000000   0.000000   0.000000
    58  C    0.000000   0.000000   0.000000
    59  C    0.000000   0.000000   0.000000
    60  C    0.000000   0.000000   0.000000
    61  C    0.000000   0.000000   0.000000
    62  C    0.000000   0.000000   0.000000
    63  C    0.000000   0.000000   0.000000
    64  C    0.000000   0.000000   0.000000
    65  C    0.000000   0.000000   0.000000
    66  C    0.000000   0.000000   0.000000
    67  C    0.000000   0.000000   0.000000
    68  C    0.000000   0.000000   0.000000
    69  C    0.000000   0.000000   0.000000
    70  C    0.000000   0.000000   0.000000
    71  C    0.000000   0.000000   0.000000
    72  C    0.000000   0.000000   0.000000
    73  C    0.000000   0.000000   0.000000
    74  C    0.000000   0.000000   0.000000
    75  C    0.000000   0.000000   0.000000
    76  C    0.000000   0.000000   0.000000
    77  C    0.000000   0.000000   0.000000
    78  H    0.000000   0.000000   0.000000
    79  H    0.000000   0.000000   0.000000
    80  H    0.000000   0.000000   0.000000
    81  H    0.000000   0.000000   0.000000
    82  H    0.000000   0.000000   0.000000
    83  H    0.000000   0.000000   0.000000
    84  H    0.000000   0.000000   0.000000
    85  H    0.000000   0.000000   0.000000
    86  H    0.000000   0.000000   0.000000
    87  H    0.000000   0.000000   0.000000
    88  H    0.000000   0.000000   0.000000
    89  H    0.000000   0.000000   0.000000
    90  O    0.000000   0.000000   0.000000
    91  C    0.000000   0.000000   0.000000
    92  O    0.000000   0.000000   0.000000
    93  C    0.000000   0.000000   0.000000
    94  O    0.000000   0.000000   0.000000
    95  O    0.000000   0.000000   0.000000
    96  C    0.000000   0.000000   0.000000
    97  C    0.000000   0.000000   0.000000
    98  H    0.000000   0.000000   0.000000
    99  H    0.000000   0.000000   0.000000
   100  H    0.000000   0.000000   0.000000
   101  H    0.000000   0.000000   0.000000
   102  H    0.000000   0.000000   0.000000
   103  H    0.000000   0.000000   0.000000
   104  H    0.000000   0.000000   0.000000
   105  H    0.000000   0.000000   0.000000
   106  H    0.000000   0.000000   0.000000
   107  H    0.000000   0.000000   0.000000
   108  H    0.000000   0.000000   0.000000
   109  H    0.000000   0.000000   0.000000
   110  H    0.000000   0.000000   0.000000
   111  H    0.000000   0.000000   0.000000
   112  H    0.000000   0.000000   0.000000
   113  H    0.000000   0.000000   0.000000
   114  H    0.000000   0.000000   0.000000
   115  H    0.000000   0.000000   0.000000
   116  H    0.000000   0.000000   0.000000
   117  H    0.000000   0.000000   0.000000
   118  H    0.000000   0.000000   0.000000
   119  H    0.000000   0.000000   0.000000
   120  H    0.000000   0.000000   0.000000
   121  H    0.000000   0.000000   0.000000
   122  H    0.000000   0.000000   0.000000
   123  H    0.000000   0.000000   0.000000
   124  H    0.000000   0.000000   0.000000
   125  H    0.000000   0.000000   0.000000
   126  O    0.000000   0.000000   0.000000
   127  H    0.000000   0.000000   0.000000
   128  H    0.000000   0.000000   0.000000
   129  H    0.000000   0.000000   0.000000
   130  H    0.000000   0.000000   0.000000
   131  H    0.000000   0.000000   0.000000
   132  O    0.000000   0.000000   0.000000
   133  H    0.000000   0.000000   0.000000
   134  O    0.000000   0.000000   0.000000
   135  H    0.000000   0.000000   0.000000
   136  H    0.000000   0.000000   0.000000
   137  H    0.000000   0.000000   0.000000
   138  H    0.000000   0.000000   0.000000
   139  H    0.000000  -0.000001   0.000000
   140  O   -0.000002   0.000001  -0.000003
   141  H   -0.000002   0.000000   0.000000
   142  O    0.000000   0.000000   0.000000
   143  C    0.000000   0.000000   0.000000
   144  O   -0.000006   0.000075  -0.000001
   145  C    0.000000   0.000005   0.000000
   146  O    0.000000   0.000000   0.000000
   147  C    0.000000   0.000000   0.000000
   148  O    0.000000   0.000000   0.000000
   149  C    0.000000   0.000000   0.000000
   150  H    0.000000   0.000000   0.000000
   151  H    0.000000   0.000000   0.000000
   152  H    0.000000   0.000000   0.000000
   153  H    0.000000   0.000000   0.000000
   154  H    0.000000   0.000000   0.000000
   155  H    0.000000   0.000000   0.000000
   156  H    0.000000   0.000000   0.000000
   157  H    0.000000   0.000000   0.000000
   158  H    0.000000   0.000000   0.000000
   159  H    0.000000  -0.000009   0.000000
   160  H    0.000000   0.000003   0.000000
   161  H    0.000000   0.000000   0.000000
   162  C    0.000000   0.000000   0.000000
   163  C    0.000000   0.000000   0.000000
   164  C    0.000126  -0.000044   0.000038
   165  C    0.000000   0.000000   0.000000
   166  H    0.000000   0.000000   0.000000
   167  H    0.000000   0.000000   0.000000
   168  H    0.000000   0.000000   0.000000
   169  H    0.000000   0.000000   0.000000
   170  H    0.000000   0.000000   0.000000
   171  H    0.000000   0.000000   0.000000
   172  H    0.000000   0.000000   0.000000
   173  H    0.000000   0.000000   0.000000
   174  H    0.000000   0.000000   0.000000
   175  H   -0.000045  -0.000043  -0.000008
   176  H   -0.000043   0.000216  -0.000015
   177  H   -0.000008  -0.000015  -0.000021
 Mulliken atomic spin densities:
              1
     1  C   -0.004398
     2  C    0.004066
     3  C    0.029670
     4  C    0.030551
     5  C    0.003297
     6  C    0.006582
     7  C    0.023875
     8  C    0.028257
     9  C    0.004773
    10  C    0.003414
    11  C    0.011108
    12  C    0.018937
    13  C   -0.002709
    14  C   -0.003002
    15  C    0.023847
    16  C    0.011091
    17  C    0.006470
    18  C    0.005993
    19  C    0.011682
    20  C    0.023140
    21  C   -0.002952
    22  C   -0.005595
    23  C    0.022361
    24  C    0.009234
    25  C    0.005967
    26  N    0.072513
    27  N    0.090565
    28  N    0.090698
    29  N    0.078971
    30  C   -0.001736
    31  C   -0.003116
    32  C   -0.004352
    33  C   -0.004354
    34  C   -0.003212
    35  C   -0.003498
    36  C   -0.004369
    37  C   -0.002736
    38  C    0.020173
    39  C   -0.005161
    40  C    0.021097
    41  C   -0.007694
    42  C    0.015932
    43  C    0.015666
    44  C   -0.004461
    45  C    0.016476
    46  C   -0.005416
    47  C    0.012481
    48  C    0.010615
    49  C   -0.004521
    50  C    0.020364
    51  C   -0.007305
    52  C    0.020447
    53  C    0.008057
    54  C   -0.003944
    55  C    0.028468
    56  C   -0.008790
    57  C    0.030042
    58  C    0.031159
    59  C   -0.009383
    60  C    0.029413
    61  C   -0.003900
    62  C    0.008201
    63  C    0.020725
    64  C   -0.007489
    65  C    0.021294
    66  C   -0.005464
    67  C    0.015444
    68  C    0.013555
    69  C   -0.006093
    70  C    0.017498
    71  C   -0.004822
    72  C    0.016992
    73  C    0.026402
    74  C   -0.008324
    75  C    0.025341
    76  C   -0.002747
    77  C    0.006435
    78  H   -0.000330
    79  H   -0.000330
    80  H   -0.001075
    81  H   -0.000062
    82  H   -0.000069
    83  H   -0.001092
    84  H    0.000070
    85  H   -0.001012
    86  H   -0.000053
    87  H   -0.000881
    88  H   -0.000351
    89  H   -0.000235
    90  O    0.007509
    91  C   -0.000613
    92  O    0.009323
    93  C   -0.000753
    94  O    0.009134
    95  O    0.007229
    96  C   -0.000590
    97  C   -0.000747
    98  H    0.000358
    99  H   -0.000748
   100  H   -0.000709
   101  H    0.000191
   102  H    0.000220
   103  H   -0.000914
   104  H    0.000216
   105  H   -0.000671
   106  H   -0.000777
   107  H    0.000215
   108  H    0.000238
   109  H   -0.000715
   110  H    0.000348
   111  H   -0.000950
   112  H    0.000226
   113  H   -0.000713
   114  H    0.000688
   115  H    0.000699
   116  H   -0.000013
   117  H    0.000536
   118  H    0.000543
   119  H   -0.000012
   120  H   -0.000016
   121  H    0.000686
   122  H    0.000686
   123  H    0.000557
   124  H    0.000568
   125  H   -0.000013
   126  O    0.001392
   127  H   -0.000463
   128  H    0.000320
   129  H   -0.001450
   130  H   -0.001173
   131  H    0.000317
   132  O    0.001445
   133  H   -0.000379
   134  O    0.001272
   135  H   -0.000459
   136  H    0.000307
   137  H   -0.001401
   138  H   -0.000909
   139  H    0.000278
   140  O    0.000508
   141  H   -0.000494
   142  O    0.012891
   143  C   -0.001008
   144  O    0.007934
   145  C   -0.000637
   146  O    0.012594
   147  C   -0.000983
   148  O    0.011245
   149  C   -0.000893
   150  H   -0.000019
   151  H    0.000847
   152  H    0.000960
   153  H   -0.000018
   154  H    0.000797
   155  H    0.000836
   156  H   -0.000018
   157  H    0.000934
   158  H    0.000822
   159  H    0.000573
   160  H    0.000604
   161  H   -0.000016
   162  C   -0.000070
   163  C   -0.000054
   164  C   -0.000206
   165  C   -0.000058
   166  H    0.000001
   167  H    0.000043
   168  H    0.000031
   169  H    0.000001
   170  H    0.000047
   171  H    0.000063
   172  H    0.000001
   173  H    0.000035
   174  H    0.000050
   175  H   -0.000024
   176  H    0.000018
   177  H   -0.000015
 Sum of Mulliken atomic spin densities =   1.00000
 Electronic spatial extent (au):  <R**2>=         129775.6448
 Charge=              1.0000 electrons
 Dipole moment (field-independent basis, Debye):
    X=              0.0381    Y=              0.5051    Z=              1.7945  Tot=              1.8646
 Quadrupole moment (field-independent basis, Debye-Ang):
   XX=           -377.3424   YY=           -437.5830   ZZ=           -487.7652
   XY=            -16.5999   XZ=             -5.7303   YZ=             11.2834
 Traceless Quadrupole moment (field-independent basis, Debye-Ang):
   XX=             56.8878   YY=             -3.3528   ZZ=            -53.5350
   XY=            -16.5999   XZ=             -5.7303   YZ=             11.2834
 Octapole moment (field-independent basis, Debye-Ang**2):
  XXX=            127.3193  YYY=            172.3454  ZZZ=             23.9425  XYY=           -282.3349
  XXY=            -56.0773  XXZ=            -18.0651  XZZ=            112.8108  YZZ=            105.2993
  YYZ=            150.8764  XYZ=            -83.0369
 Hexadecapole moment (field-independent basis, Debye-Ang**3):
 XXXX=         -65233.9885 YYYY=         -61833.3647 ZZZZ=         -24278.7951 XXXY=          -2269.2714
 XXXZ=           -133.1731 YYYX=           -149.5796 YYYZ=           1611.3219 ZZZX=           -451.9364
 ZZZY=             79.7327 XXYY=         -18921.9487 XXZZ=         -12378.1515 YYZZ=         -13478.8417
 XXYZ=            102.5752 YYXZ=           -865.6575 ZZXY=           -229.6020
 N-N= 1.887937307971D+04 E-N=-7.191752822109D+04  KE= 6.565911838246D+03
 Leave Link  601 at Tue Feb  3 16:53:01 2015, MaxMem= 2147483648 cpu:     145.0
 (Enter /opt/g09/l9999.exe)
 1\1\GINC-CHPC-SCANDIUM\SP\UB3LYP\CC-pVDZ\C85H76N4O12(1+,2)\JARVIST\03-
 Feb-2015\0\\#p sp B3LYP/cc-pVDZ\\Auto Spiro; and yes I said yes I will
  Yes.\\1,2\C,0,-0.020812,-0.011012,0.254683\C,0,0.536287,-1.043583,1.2
 4199\C,0,0.308444,-0.63094,2.569972\C,0,-0.395979,0.652381,2.55117\C,0
 ,-0.595425,1.041096,1.211448\C,0,1.025849,0.551375,-0.714579\C,0,0.634
 624,0.327,-2.049034\C,0,-0.650907,-0.373411,-2.052427\C,0,-1.054175,-0
 .588289,-0.720298\C,0,2.217392,1.189445,-0.409139\C,0,3.046144,1.63923
 8,-1.455454\C,0,2.648196,1.425371,-2.789783\C,0,1.45833,0.766233,-3.08
 8647\C,0,-0.859681,1.475044,3.580255\C,0,-1.503251,2.670385,3.26682\C,
 0,-1.707915,3.056446,1.927914\C,0,-1.245486,2.221462,0.891504\C,0,1.19
 4776,-2.228753,0.957699\C,0,1.635977,-3.043612,2.018777\C,0,1.401989,-
 2.633975,3.345719\C,0,0.75061,-1.43437,3.623739\C,0,-1.465341,-0.82050
 5,-3.096141\C,0,-2.656704,-1.47918,-2.803654\C,0,-3.065123,-1.687241,-
 1.471067\C,0,-2.246575,-1.227518,-0.420728\N,0,4.266837,2.304481,-1.17
 1819\N,0,-2.376189,4.269948,1.624613\N,0,2.311288,-4.263133,1.754156\N
 ,0,-4.284736,-2.354753,-1.194529\C,0,-5.435623,-2.107208,-1.996289\C,0
 ,1.857066,-5.123471,0.715738\C,0,-4.385156,-3.240399,-0.085935\C,0,3.4
 28246,-4.645505,2.547045\C,0,4.348322,3.220355,-0.085585\C,0,5.427677,
 2.032699,-1.946946\C,0,-3.48806,4.686955,2.407224\C,0,-1.901401,5.1064
 85,0.574988\C,0,-3.607959,6.011089,2.844651\C,0,-4.711986,6.429128,3.5
 91879\C,0,-5.710483,5.511865,3.935453\C,0,-5.593037,4.180087,3.510799\
 C,0,-4.505386,3.777014,2.74956\C,0,5.441667,3.205067,0.787443\C,0,5.54
 2831,4.12013,1.837751\C,0,4.52672,5.057902,2.04715\C,0,3.419277,5.0706
 53,1.186\C,0,3.336322,4.173768,0.129978\C,0,6.269095,3.080012,-2.36055
 \C,0,7.418386,2.832952,-3.101217\C,0,7.750769,1.510174,-3.471949\C,0,6
 .900927,0.4716,-3.08451\C,0,5.759957,0.726115,-2.319467\C,0,-2.818886,
 5.698121,-0.316406\C,0,-2.383474,6.531822,-1.34077\C,0,-0.99639,6.7731
 17,-1.513674\C,0,-0.095714,6.173505,-0.637357\C,0,-0.540076,5.355128,0
 .408952\C,0,0.497961,-5.366826,0.522623\C,0,0.073008,-6.209977,-0.5116
 97\C,0,0.989823,-6.840777,-1.348601\C,0,2.37383,-6.606252,-1.14708\C,0
 ,2.790912,-5.74669,-0.136334\C,0,4.427741,-3.721046,2.873416\C,0,5.523
 414,-4.086627,3.658459\C,0,5.64925,-5.404234,4.111777\C,0,4.658957,-6.
 340104,3.779715\C,0,3.560626,-5.964202,3.01896\C,0,-3.377508,-4.187936
 ,0.17378\C,0,-3.48055,-5.05748,1.250706\C,0,-4.603939,-5.022554,2.0904
 75\C,0,-5.61627,-4.091367,1.837195\C,0,-5.495607,-3.204108,0.765044\C,
 0,-5.794982,-0.81199,-2.36432\C,0,-6.924478,-0.593745,-3.162811\C,0,-7
 .723897,-1.653913,-3.581476\C,0,-7.36835,-2.973184,-3.199533\C,0,-6.23
 0676,-3.187544,-2.429038\H,0,-2.555753,-1.373023,0.609434\H,0,1.375125
 ,-2.534821,-0.068005\H,0,1.73538,-3.270209,4.159214\H,0,0.579049,-1.14
 2558,4.656903\H,0,-0.711351,1.201819,4.622068\H,0,-1.852763,3.321196,4
 .061735\H,0,-1.172834,-0.674585,-4.133046\H,0,-3.286463,-1.841567,-3.6
 09502\H,0,1.173971,0.614517,-4.126964\H,0,3.284551,1.783639,-3.592452\
 H,0,-1.404279,2.508359,-0.143238\H,0,2.517867,1.342949,0.622497\O,0,-4
 .613567,-5.931346,3.112661\C,0,-5.712568,-5.915625,4.007054\O,0,6.6840
 04,-5.874643,4.874176\C,0,7.708021,-4.966292,5.239618\O,0,-6.827469,5.
 807676,4.668989\O,0,4.517811,5.992977,3.045248\C,0,5.609109,6.01207,3.
 949012\C,0,-6.98815,7.137716,5.129883\H,0,-6.378179,3.479087,3.777152\
 H,0,-4.43247,2.746928,2.414948\H,0,6.230659,2.474245,0.640614\H,0,6.41
 0036,4.079574,2.487024\H,0,-4.770263,7.464296,3.909138\H,0,-2.830952,6
 .726293,2.593579\H,0,2.63889,5.806142,1.357498\H,0,2.477324,4.200032,-
 0.53339\H,0,-6.28022,-2.47607,0.584452\H,0,-6.494179,-4.032543,2.47070
 6\H,0,-2.703077,-5.787281,1.456445\H,0,-2.505517,-4.230377,-0.471661\H
 ,0,6.273157,-3.339679,3.893976\H,0,4.345241,-2.699694,2.514998\H,0,4.7
 63016,-7.357406,4.144584\H,0,2.793097,-6.693811,2.780734\H,0,7.316001,
 -4.132915,5.838486\H,0,8.224635,-4.561312,4.358651\H,0,8.417574,-5.538
 45,5.840601\H,0,6.558487,6.213055,3.434096\H,0,5.694363,5.066233,4.501
 077\H,0,5.402962,6.821407,4.652136\H,0,-7.928848,7.152798,5.683852\H,0
 ,-7.047762,7.851501,4.29681\H,0,-6.169699,7.436797,5.798785\H,0,-6.658
 943,-6.127904,3.490888\H,0,-5.797203,-4.952182,4.527695\H,0,-5.517166,
 -6.703267,4.737337\O,0,3.209914,-7.256524,-2.006075\H,0,3.844425,-5.54
 5517,0.011313\H,0,-0.989303,-6.383374,-0.642228\H,0,-0.234287,-4.89736
 4,1.17068\H,0,-5.195371,0.030059,-2.035632\H,0,-7.181142,0.422648,-3.4
 3891\O,0,-8.196345,-3.957573,-3.65218\H,0,-5.940118,-4.191608,-2.14653
 4\O,0,-3.202454,7.149384,-2.239509\H,0,-3.874013,5.491891,-0.188156\H,
 0,0.968078,6.352092,-0.746732\H,0,0.179226,4.908271,1.086898\H,0,5.125
 538,-0.098703,-2.012539\H,0,7.131806,-0.553504,-3.351742\O,0,8.235212,
 3.894505,-3.411275\H,0,6.044277,4.107434,-2.09567\O,0,0.674374,-7.6880
 6,-2.371639\C,0,-0.696674,-7.94892,-2.610227\O,0,8.909238,1.351099,-4.
 184199\C,0,9.304776,0.032521,-4.521853\O,0,-0.66229,7.594328,-2.551456
 \C,0,0.712537,7.859168,-2.764849\O,0,-8.850094,-1.541878,-4.345074\C,0
 ,-9.250644,-0.242811,-4.740722\H,0,-0.727385,-8.631082,-3.462116\H,0,-
 1.246724,-7.031184,-2.860185\H,0,-1.1758,-8.428139,-1.745217\H,0,-10.1
 59642,-0.376797,-5.330394\H,0,-8.48629,0.247061,-5.359742\H,0,-9.47157
 6,0.395617,-3.874129\H,0,0.758434,8.518214,-3.634031\H,0,1.167582,8.36
 5306,-1.902278\H,0,1.27481,6.939392,-2.976795\H,0,8.570309,-0.457618,-
 5.175352\H,0,9.455512,-0.584167,-3.625812\H,0,10.252107,0.131277,-5.05
 5307\C,0,-7.896447,-5.294949,-3.292902\C,0,-4.598619,6.94287,-2.116129
 \C,0,8.324371,4.228892,-4.797519\C,0,4.605082,-7.073806,-1.840448\H,0,
 -5.058174,7.531031,-2.912868\H,0,-4.865015,5.88512,-2.246431\H,0,-4.97
 5728,7.289076,-1.144319\H,0,-8.683527,-5.906497,-3.738226\H,0,-7.90090
 1,-5.432646,-2.203252\H,0,-6.922591,-5.612829,-3.689607\H,0,5.079179,-
 7.693712,-2.603911\H,0,4.941442,-7.398944,-0.846763\H,0,4.897718,-6.02
 5749,-1.991685\H,0,7.332935,4.46792,-5.205816\H,0,8.774649,3.418916,-5
 .379305\H,0,8.959419,5.116354,-4.85259\\Version=EM64L-G09RevA.02\State
 =2-A\HF=-4406.4166885\S2=0.755068\S2-1=0.\S2A=0.750025\RMSD=6.532e-09\
 Dipole=0.014995,0.198718,0.7059944\Quadrupole=42.2946656,-2.4927013,-3
 9.8019643,-12.3415848,-4.2603185,8.3889496\PG=C01 [X(C85H76N4O12)]\\@


 KNOWING HOW CONTENTED, FREE, AND JOYFUL IS LIFE IN
 THE REALMS OF SCIENCE, ONE FERVENTLY WISHES THAT
 MANY WOULD ENTER HER PORTALS.
   --  DMITRI IVANOVICH MENDELEEV
 "FIRST PRINCIPLES OF CHEMISTRY", LONGMANS, GREEN,
 AND CO.  LONDON, 1891
 Job cpu time:  1 days  1 hours 29 minutes 28.8 seconds.
 File lengths (MBytes):  RWF=   2994 Int=      0 D2E=      0 Chk=    149 Scr=      1
 Normal termination of Gaussian 09 at Tue Feb  3 16:53:01 2015.
