 Entering Gaussian System, Link 0=g09
 Input=sp_9_B3LYP_cc-pVDZ.com
 Output=sp_9_B3LYP_cc-pVDZ.log
 Initial command:
 /opt/g09/l1.exe /home/jarvist/2014-07_SPIRO/b3lyp-631gs_opt/delta_scf/cation/Gau-49050.inp -scrdir=/home/jarvist/2014-07_SPIRO/b3lyp-631gs_opt/delta_scf/cation/
 Default is to use a total of   8 processors:
                                8 via shared-memory
                                1 via Linda
 Entering Link 1 = /opt/g09/l1.exe PID=     49052.
  
 Copyright (c) 1988,1990,1992,1993,1995,1998,2003,2009, Gaussian, Inc.
                  All Rights Reserved.
  
 This is part of the Gaussian(R) 09 program.  It is based on
 the Gaussian(R) 03 system (copyright 2003, Gaussian, Inc.),
 the Gaussian(R) 98 system (copyright 1998, Gaussian, Inc.),
 the Gaussian(R) 94 system (copyright 1995, Gaussian, Inc.),
 the Gaussian 92(TM) system (copyright 1992, Gaussian, Inc.),
 the Gaussian 90(TM) system (copyright 1990, Gaussian, Inc.),
 the Gaussian 88(TM) system (copyright 1988, Gaussian, Inc.),
 the Gaussian 86(TM) system (copyright 1986, Carnegie Mellon
 University), and the Gaussian 82(TM) system (copyright 1983,
 Carnegie Mellon University). Gaussian is a federally registered
 trademark of Gaussian, Inc.
  
 This software contains proprietary and confidential information,
 including trade secrets, belonging to Gaussian, Inc.
  
 This software is provided under written license and may be
 used, copied, transmitted, or stored only in accord with that
 written license.
  
 The following legend is applicable only to US Government
 contracts under FAR:
  
                    RESTRICTED RIGHTS LEGEND
  
 Use, reproduction and disclosure by the US Government is
 subject to restrictions as set forth in subparagraphs (a)
 and (c) of the Commercial Computer Software - Restricted
 Rights clause in FAR 52.227-19.
  
 Gaussian, Inc.
 340 Quinnipiac St., Bldg. 40, Wallingford CT 06492
  
  
 ---------------------------------------------------------------
 Warning -- This program may not be used in any manner that
 competes with the business of Gaussian, Inc. or will provide
 assistance to any competitor of Gaussian, Inc.  The licensee
 of this program is prohibited from giving any competitor of
 Gaussian, Inc. access to this program.  By using this program,
 the user acknowledges that Gaussian, Inc. is engaged in the
 business of creating and licensing software in the field of
 computational chemistry and represents and warrants to the
 licensee that it is not a competitor of Gaussian, Inc. and that
 it will not use this program in any manner prohibited above.
 ---------------------------------------------------------------
  

 Cite this work as:
 Gaussian 09, Revision A.02,
 M. J. Frisch, G. W. Trucks, H. B. Schlegel, G. E. Scuseria, 
 M. A. Robb, J. R. Cheeseman, G. Scalmani, V. Barone, B. Mennucci, 
 G. A. Petersson, H. Nakatsuji, M. Caricato, X. Li, H. P. Hratchian, 
 A. F. Izmaylov, J. Bloino, G. Zheng, J. L. Sonnenberg, M. Hada, 
 M. Ehara, K. Toyota, R. Fukuda, J. Hasegawa, M. Ishida, T. Nakajima, 
 Y. Honda, O. Kitao, H. Nakai, T. Vreven, J. A. Montgomery, Jr., 
 J. E. Peralta, F. Ogliaro, M. Bearpark, J. J. Heyd, E. Brothers, 
 K. N. Kudin, V. N. Staroverov, R. Kobayashi, J. Normand, 
 K. Raghavachari, A. Rendell, J. C. Burant, S. S. Iyengar, J. Tomasi, 
 M. Cossi, N. Rega, J. M. Millam, M. Klene, J. E. Knox, J. B. Cross, 
 V. Bakken, C. Adamo, J. Jaramillo, R. Gomperts, R. E. Stratmann, 
 O. Yazyev, A. J. Austin, R. Cammi, C. Pomelli, J. W. Ochterski, 
 R. L. Martin, K. Morokuma, V. G. Zakrzewski, G. A. Voth, 
 P. Salvador, J. J. Dannenberg, S. Dapprich, A. D. Daniels, 
 O. Farkas, J. B. Foresman, J. V. Ortiz, J. Cioslowski, 
 and D. J. Fox, Gaussian, Inc., Wallingford CT, 2009.
 
 ******************************************
 Gaussian 09:  EM64L-G09RevA.02 11-Jun-2009
                 3-Feb-2015 
 ******************************************
 %mem=16GB
 %nprocs=24
 Will use up to   24 processors via shared memory.
 Default route:  MaxDisk=100GB
 -------------------
 #p sp B3LYP/cc-pVDZ
 -------------------
 1/38=1/1;
 2/12=2,17=6,18=5,40=1/2;
 3/5=16,11=2,16=1,25=1,30=1,74=-5/1,2,3;
 4//1;
 5/5=2,38=5/2;
 6/7=2,8=2,9=2,10=2,28=1/1;
 99/5=1,9=1/99;
 Leave Link    1 at Tue Feb  3 16:53:02 2015, MaxMem= 2147483648 cpu:       1.6
 (Enter /opt/g09/l101.exe)
 ------------------------------------------
 Auto Spiro; and yes I said yes I will Yes.
 ------------------------------------------
 Symbolic Z-matrix:
 Charge =  1 Multiplicity = 2
 C                    -0.01375   0.09278  -0.2422 
 C                    -0.7299   -0.83378  -1.22822 
 C                    -0.45513  -0.45765  -2.55656 
 C                     0.45857   0.68874  -2.53911 
 C                     0.72154   1.03625  -1.20007 
 C                    -0.9793    0.76714   0.73918 
 C                    -0.61853   0.47417   2.06955 
 C                     0.58078  -0.36729   2.05832 
 C                     0.9382   -0.62425   0.72065 
 C                    -2.11633   1.50099   0.44413 
 C                    -2.92817   1.96829   1.49603 
 C                    -2.55389   1.69771   2.82486 
 C                    -1.41305   0.95175   3.11396 
 C                     1.08542   1.39938  -3.56671 
 C                     1.97559   2.42304  -3.24961 
 C                     2.26969   2.74223  -1.90934 
 C                     1.61354   2.04645  -0.87788 
 C                    -1.57929  -1.8886   -0.93729 
 C                    -2.16724  -2.60935  -1.98988 
 C                    -1.88055  -2.24737  -3.31908 
 C                    -1.03892  -1.17355  -3.60563 
 C                     1.35196  -0.91272   3.08731 
 C                     2.45102  -1.71092   2.77492 
 C                     2.80697  -1.96646   1.43785 
 C                     2.03691  -1.40354   0.40243 
 N                    -4.13382   2.66673   1.22458 
 N                     3.21701   3.74931  -1.59614 
 N                    -3.02682  -3.70767  -1.70183 
 N                     3.9377   -2.76963   1.13852 
 C                     5.08824  -2.6795    1.96741 
 C                    -2.65598  -4.57558  -0.63409 
 C                     3.92921  -3.6828    0.04773 
 C                    -4.31179  -3.82553  -2.28547 
 C                    -4.2302    3.607     0.16431 
 C                    -5.26288   2.44647   2.06082 
 C                     4.45531   3.8485   -2.27432 
 C                     2.93225   4.65139  -0.5314 
 C                     5.12069   5.0766   -2.3805 
 C                     6.36224   5.18084  -3.0136 
 C                     6.96092   4.0508   -3.57558 
 C                     6.30244   2.8177   -3.48023 
 C                     5.07862   2.71483  -2.83377 
 C                    -5.43661   3.79072  -0.52135 
 C                    -5.55547   4.73229  -1.54784 
 C                    -4.45052   5.5005   -1.92147 
 C                    -3.23745   5.32125  -1.24196 
 C                    -3.13025   4.40162  -0.20959 
 C                    -5.79249   3.5073    2.84382 
 C                    -6.8888    3.30845   3.67848 
 C                    -7.46393   2.03316   3.78093 
 C                    -6.95523   0.96949   3.03877 
 C                    -5.86923   1.18474   2.17878 
 C                     3.46656   4.45312   0.75392 
 C                     3.19466   5.34983   1.79975 
 C                     2.3636    6.44478   1.54961 
 C                     1.80744   6.66167   0.28358 
 C                     2.09777   5.76961  -0.74916 
 C                    -1.58418  -5.46999  -0.7683 
 C                    -1.1721   -6.29233   0.28805 
 C                    -1.85254  -6.22859   1.50333 
 C                    -2.92704  -5.34281   1.67251 
 C                    -3.30881  -4.50829   0.62464 
 C                    -4.96195  -2.73639  -2.88384 
 C                    -6.22414  -2.87413  -3.46776 
 C                    -6.87965  -4.10794  -3.44968 
 C                    -6.24744  -5.19828  -2.8397 
 C                    -4.98666  -5.06249  -2.27477 
 C                     2.74252  -4.32193  -0.35947 
 C                     2.73673  -5.20407  -1.4296 
 C                     3.92499  -5.50482  -2.11089 
 C                     5.11509  -4.89791  -1.70296 
 C                     5.10833  -3.98758  -0.64125 
 C                     5.80014  -1.47807   2.11573 
 C                     6.91225  -1.37898   2.96258 
 C                     7.34219  -2.50571   3.66048 
 C                     6.66016  -3.72432   3.52849 
 C                     5.53786  -3.80521   2.70822 
 H                     2.30514  -1.58242  -0.63372 
 H                    -1.80423  -2.15299   0.09055 
 H                    -2.32676  -2.81632  -4.12892 
 H                    -0.83288  -0.91242  -4.64076 
 H                     0.88632   1.16322  -4.60932 
 H                     2.46275   2.9834   -4.04094 
 H                     1.09656  -0.73506   4.12934 
 H                     3.04448  -2.14967   3.57052 
 H                    -1.15428   0.74553   4.14982 
 H                    -3.17628   2.06911   3.6324 
 H                     1.84411   2.27332   0.1571 
 H                    -2.39607   1.69434  -0.58668 
 O                     3.81329  -6.39731  -3.14711 
 C                     4.98262  -6.70891  -3.87986 
 O                    -8.11802  -4.35216  -3.98896 
 C                    -8.78854  -3.27492  -4.61484 
 O                     8.16934   4.03913  -4.22719 
 O                    -4.44706   6.44381  -2.91693 
 C                    -5.64577   6.64224  -3.64288 
 C                     8.86014   5.26666  -4.35722 
 H                     6.77668   1.94077  -3.91104 
 H                     4.59471   1.74677  -2.76215 
 H                    -6.30445   3.20069  -0.24448 
 H                     6.83967   6.15304  -3.06839 
 H                     4.66665   5.96778  -1.9612 
 H                    -2.38583   5.92832  -1.53355 
 H                    -2.18695   4.29428   0.31472 
 H                     6.04113  -3.51938  -0.34289 
 H                     6.05302  -5.10771  -2.20524 
 H                     1.80814  -5.66686  -1.74948 
 H                     1.81308  -4.11849   0.16071 
 H                    -6.68359  -2.00354  -3.92298 
 H                    -4.48016  -1.7654   -2.90133 
 H                    -6.76035  -6.15535  -2.82442 
 H                    -4.51886  -5.92319  -1.80843 
 H                    -8.21714  -2.87933  -5.4663 
 H                    -8.98932  -2.4552   -3.91066 
 H                    -9.73741  -3.67757  -4.97577 
 H                    -6.46398   6.98236  -2.99269 
 H                    -5.96156   5.72745  -4.16334 
 H                    -5.42804   7.41771  -4.38031 
 H                     9.77967   5.04066  -4.90155 
 H                     9.11695   5.69592  -3.37837 
 H                     8.27651   6.00441  -4.92569 
 H                     5.74836  -7.17854  -3.24621 
 H                     5.41419  -5.81761  -4.35639 
 H                     4.67584  -7.41611  -4.65357 
 H                    -3.41413  -5.3119    2.63843 
 O                    -4.286    -3.56821   0.72695 
 H                    -0.32888  -6.95022   0.12193 
 O                    -0.83551  -5.51776  -1.92213 
 O                     5.38977  -0.32001   1.49794 
 H                     7.4074   -0.41935   3.03706 
 H                     7.01759  -4.57228   4.09846 
 O                     4.79208  -4.93307   2.56153 
 H                     3.6157    5.1866    2.78091 
 O                     4.23349   3.34034   0.90656 
 H                     1.17111   7.52583   0.14432 
 O                     1.62297   5.90128  -2.01706 
 O                    -5.38035   0.07885   1.52537 
 H                    -7.36859  -0.02953   3.08909 
 H                    -7.30398   4.10544   4.28174 
 O                    -5.1448    4.69691   2.72172 
 O                    -1.55007  -6.98686   2.59688 
 C                    -0.44464  -7.87235   2.50957 
 O                    -8.52297   1.94217   4.63861 
 C                    -9.14581   0.67762   4.79786 
 O                     2.02907   7.37587   2.4917 
 C                     2.52585   7.21433   3.80954 
 O                     8.41926  -2.53198   4.50046 
 C                     9.15664  -1.33321   4.67621 
 H                    -0.3719   -8.35606   3.48558 
 H                     0.48762  -7.33247   2.29915 
 H                    -0.60001  -8.63679   1.73677 
 H                     9.96136  -1.57597   5.37286 
 H                     8.53474  -0.53556   5.10365 
 H                     9.58893  -0.9829    3.72967 
 H                     2.12711   8.05289   4.38381 
 H                     3.62327   7.24802   3.83622 
 H                     2.18296   6.27269   4.25819 
 H                    -9.57333   0.31642   3.85317 
 H                    -9.94789   0.82803   5.52297 
 H                    -8.44276  -0.07236   5.18351 
 C                     5.2006   -6.1083    3.2412 
 C                     4.70644   3.0038    2.20625 
 H                    -6.51114   4.84388  -2.048 
 C                    -5.63314   5.81274   3.44808 
 C                    -4.8881   -3.35377   1.99892 
 H                    -5.51939  -2.47249   1.88575 
 H                    -4.13078  -3.15048   2.76561 
 H                    -5.49234  -4.21865   2.30209 
 H                     4.47786  -6.87723   2.96273 
 H                     5.18537  -5.97078   4.33054 
 H                     6.20516  -6.42441   2.93164 
 H                     5.17715   2.02521   2.10735 
 H                     3.87909   2.93085   2.92314 
 H                     5.43738   3.74013   2.56646 
 H                    -5.58879   5.63929   4.53139 
 H                    -6.66484   6.05721   3.16393 
 H                    -4.97792   6.64534   3.18656 
 C                     5.57353  -0.25      0.0781 
 C                     0.7615    6.99105  -2.30447 
 C                    -5.52229   0.05      0.09984 
 C                    -1.45664  -6.13488  -3.05135 
 H                     0.49198   6.88696  -3.3568 
 H                     1.26408   7.95495  -2.14936 
 H                    -0.14819   6.9583   -1.69112 
 H                    -0.72097  -6.09492  -3.85742 
 H                    -2.36366  -5.60386  -3.35535 
 H                    -1.70274  -7.18345  -2.83481 
 H                    -5.11404  -0.91019  -0.22061 
 H                    -6.58216   0.11154  -0.18152 
 H                    -4.96991   0.86313  -0.37872 
 H                     5.21206   0.73532  -0.22153 
 H                     5.00286  -1.02597  -0.44006 
 H                     6.63751  -0.34531  -0.17615 
 
 NAtoms=    193 NQM=    193 NQMF=      0 NMic=      0 NMicF=      0 NTot=    193.
                    Isotopes and Nuclear Properties:
 (Nuclear quadrupole moments (NQMom) in fm**2, nuclear magnetic moments (NMagM)
  in nuclear magnetons)

  Atom         1           2           3           4           5           6           7           8           9          10
 IAtWgt=          12          12          12          12          12          12          12          12          12          12
 AtmWgt=  12.0000000  12.0000000  12.0000000  12.0000000  12.0000000  12.0000000  12.0000000  12.0000000  12.0000000  12.0000000
 NucSpn=           0           0           0           0           0           0           0           0           0           0
 AtZEff=   0.0000000   0.0000000   0.0000000   0.0000000   0.0000000   0.0000000   0.0000000   0.0000000   0.0000000   0.0000000
 NQMom=    0.0000000   0.0000000   0.0000000   0.0000000   0.0000000   0.0000000   0.0000000   0.0000000   0.0000000   0.0000000
 NMagM=    0.0000000   0.0000000   0.0000000   0.0000000   0.0000000   0.0000000   0.0000000   0.0000000   0.0000000   0.0000000

  Atom        11          12          13          14          15          16          17          18          19          20
 IAtWgt=          12          12          12          12          12          12          12          12          12          12
 AtmWgt=  12.0000000  12.0000000  12.0000000  12.0000000  12.0000000  12.0000000  12.0000000  12.0000000  12.0000000  12.0000000
 NucSpn=           0           0           0           0           0           0           0           0           0           0
 AtZEff=   0.0000000   0.0000000   0.0000000   0.0000000   0.0000000   0.0000000   0.0000000   0.0000000   0.0000000   0.0000000
 NQMom=    0.0000000   0.0000000   0.0000000   0.0000000   0.0000000   0.0000000   0.0000000   0.0000000   0.0000000   0.0000000
 NMagM=    0.0000000   0.0000000   0.0000000   0.0000000   0.0000000   0.0000000   0.0000000   0.0000000   0.0000000   0.0000000

  Atom        21          22          23          24          25          26          27          28          29          30
 IAtWgt=          12          12          12          12          12          14          14          14          14          12
 AtmWgt=  12.0000000  12.0000000  12.0000000  12.0000000  12.0000000  14.0030740  14.0030740  14.0030740  14.0030740  12.0000000
 NucSpn=           0           0           0           0           0           2           2           2           2           0
 AtZEff=   0.0000000   0.0000000   0.0000000   0.0000000   0.0000000   0.0000000   0.0000000   0.0000000   0.0000000   0.0000000
 NQMom=    0.0000000   0.0000000   0.0000000   0.0000000   0.0000000   2.0440000   2.0440000   2.0440000   2.0440000   0.0000000
 NMagM=    0.0000000   0.0000000   0.0000000   0.0000000   0.0000000   0.4037610   0.4037610   0.4037610   0.4037610   0.0000000

  Atom        31          32          33          34          35          36          37          38          39          40
 IAtWgt=          12          12          12          12          12          12          12          12          12          12
 AtmWgt=  12.0000000  12.0000000  12.0000000  12.0000000  12.0000000  12.0000000  12.0000000  12.0000000  12.0000000  12.0000000
 NucSpn=           0           0           0           0           0           0           0           0           0           0
 AtZEff=   0.0000000   0.0000000   0.0000000   0.0000000   0.0000000   0.0000000   0.0000000   0.0000000   0.0000000   0.0000000
 NQMom=    0.0000000   0.0000000   0.0000000   0.0000000   0.0000000   0.0000000   0.0000000   0.0000000   0.0000000   0.0000000
 NMagM=    0.0000000   0.0000000   0.0000000   0.0000000   0.0000000   0.0000000   0.0000000   0.0000000   0.0000000   0.0000000

  Atom        41          42          43          44          45          46          47          48          49          50
 IAtWgt=          12          12          12          12          12          12          12          12          12          12
 AtmWgt=  12.0000000  12.0000000  12.0000000  12.0000000  12.0000000  12.0000000  12.0000000  12.0000000  12.0000000  12.0000000
 NucSpn=           0           0           0           0           0           0           0           0           0           0
 AtZEff=   0.0000000   0.0000000   0.0000000   0.0000000   0.0000000   0.0000000   0.0000000   0.0000000   0.0000000   0.0000000
 NQMom=    0.0000000   0.0000000   0.0000000   0.0000000   0.0000000   0.0000000   0.0000000   0.0000000   0.0000000   0.0000000
 NMagM=    0.0000000   0.0000000   0.0000000   0.0000000   0.0000000   0.0000000   0.0000000   0.0000000   0.0000000   0.0000000

  Atom        51          52          53          54          55          56          57          58          59          60
 IAtWgt=          12          12          12          12          12          12          12          12          12          12
 AtmWgt=  12.0000000  12.0000000  12.0000000  12.0000000  12.0000000  12.0000000  12.0000000  12.0000000  12.0000000  12.0000000
 NucSpn=           0           0           0           0           0           0           0           0           0           0
 AtZEff=   0.0000000   0.0000000   0.0000000   0.0000000   0.0000000   0.0000000   0.0000000   0.0000000   0.0000000   0.0000000
 NQMom=    0.0000000   0.0000000   0.0000000   0.0000000   0.0000000   0.0000000   0.0000000   0.0000000   0.0000000   0.0000000
 NMagM=    0.0000000   0.0000000   0.0000000   0.0000000   0.0000000   0.0000000   0.0000000   0.0000000   0.0000000   0.0000000

  Atom        61          62          63          64          65          66          67          68          69          70
 IAtWgt=          12          12          12          12          12          12          12          12          12          12
 AtmWgt=  12.0000000  12.0000000  12.0000000  12.0000000  12.0000000  12.0000000  12.0000000  12.0000000  12.0000000  12.0000000
 NucSpn=           0           0           0           0           0           0           0           0           0           0
 AtZEff=   0.0000000   0.0000000   0.0000000   0.0000000   0.0000000   0.0000000   0.0000000   0.0000000   0.0000000   0.0000000
 NQMom=    0.0000000   0.0000000   0.0000000   0.0000000   0.0000000   0.0000000   0.0000000   0.0000000   0.0000000   0.0000000
 NMagM=    0.0000000   0.0000000   0.0000000   0.0000000   0.0000000   0.0000000   0.0000000   0.0000000   0.0000000   0.0000000

  Atom        71          72          73          74          75          76          77          78          79          80
 IAtWgt=          12          12          12          12          12          12          12           1           1           1
 AtmWgt=  12.0000000  12.0000000  12.0000000  12.0000000  12.0000000  12.0000000  12.0000000   1.0078250   1.0078250   1.0078250
 NucSpn=           0           0           0           0           0           0           0           1           1           1
 AtZEff=   0.0000000   0.0000000   0.0000000   0.0000000   0.0000000   0.0000000   0.0000000   0.0000000   0.0000000   0.0000000
 NQMom=    0.0000000   0.0000000   0.0000000   0.0000000   0.0000000   0.0000000   0.0000000   0.0000000   0.0000000   0.0000000
 NMagM=    0.0000000   0.0000000   0.0000000   0.0000000   0.0000000   0.0000000   0.0000000   2.7928460   2.7928460   2.7928460

  Atom        81          82          83          84          85          86          87          88          89          90
 IAtWgt=           1           1           1           1           1           1           1           1           1          16
 AtmWgt=   1.0078250   1.0078250   1.0078250   1.0078250   1.0078250   1.0078250   1.0078250   1.0078250   1.0078250  15.9949146
 NucSpn=           1           1           1           1           1           1           1           1           1           0
 AtZEff=   0.0000000   0.0000000   0.0000000   0.0000000   0.0000000   0.0000000   0.0000000   0.0000000   0.0000000   0.0000000
 NQMom=    0.0000000   0.0000000   0.0000000   0.0000000   0.0000000   0.0000000   0.0000000   0.0000000   0.0000000   0.0000000
 NMagM=    2.7928460   2.7928460   2.7928460   2.7928460   2.7928460   2.7928460   2.7928460   2.7928460   2.7928460   0.0000000

  Atom        91          92          93          94          95          96          97          98          99         100
 IAtWgt=          12          16          12          16          16          12          12           1           1           1
 AtmWgt=  12.0000000  15.9949146  12.0000000  15.9949146  15.9949146  12.0000000  12.0000000   1.0078250   1.0078250   1.0078250
 NucSpn=           0           0           0           0           0           0           0           1           1           1
 AtZEff=   0.0000000   0.0000000   0.0000000   0.0000000   0.0000000   0.0000000   0.0000000   0.0000000   0.0000000   0.0000000
 NQMom=    0.0000000   0.0000000   0.0000000   0.0000000   0.0000000   0.0000000   0.0000000   0.0000000   0.0000000   0.0000000
 NMagM=    0.0000000   0.0000000   0.0000000   0.0000000   0.0000000   0.0000000   0.0000000   2.7928460   2.7928460   2.7928460

  Atom       101         102         103         104         105         106         107         108         109         110
 IAtWgt=           1           1           1           1           1           1           1           1           1           1
 AtmWgt=   1.0078250   1.0078250   1.0078250   1.0078250   1.0078250   1.0078250   1.0078250   1.0078250   1.0078250   1.0078250
 NucSpn=           1           1           1           1           1           1           1           1           1           1
 AtZEff=   0.0000000   0.0000000   0.0000000   0.0000000   0.0000000   0.0000000   0.0000000   0.0000000   0.0000000   0.0000000
 NQMom=    0.0000000   0.0000000   0.0000000   0.0000000   0.0000000   0.0000000   0.0000000   0.0000000   0.0000000   0.0000000
 NMagM=    2.7928460   2.7928460   2.7928460   2.7928460   2.7928460   2.7928460   2.7928460   2.7928460   2.7928460   2.7928460

  Atom       111         112         113         114         115         116         117         118         119         120
 IAtWgt=           1           1           1           1           1           1           1           1           1           1
 AtmWgt=   1.0078250   1.0078250   1.0078250   1.0078250   1.0078250   1.0078250   1.0078250   1.0078250   1.0078250   1.0078250
 NucSpn=           1           1           1           1           1           1           1           1           1           1
 AtZEff=   0.0000000   0.0000000   0.0000000   0.0000000   0.0000000   0.0000000   0.0000000   0.0000000   0.0000000   0.0000000
 NQMom=    0.0000000   0.0000000   0.0000000   0.0000000   0.0000000   0.0000000   0.0000000   0.0000000   0.0000000   0.0000000
 NMagM=    2.7928460   2.7928460   2.7928460   2.7928460   2.7928460   2.7928460   2.7928460   2.7928460   2.7928460   2.7928460

  Atom       121         122         123         124         125         126         127         128         129         130
 IAtWgt=           1           1           1           1           1          16           1          16          16           1
 AtmWgt=   1.0078250   1.0078250   1.0078250   1.0078250   1.0078250  15.9949146   1.0078250  15.9949146  15.9949146   1.0078250
 NucSpn=           1           1           1           1           1           0           1           0           0           1
 AtZEff=   0.0000000   0.0000000   0.0000000   0.0000000   0.0000000   0.0000000   0.0000000   0.0000000   0.0000000   0.0000000
 NQMom=    0.0000000   0.0000000   0.0000000   0.0000000   0.0000000   0.0000000   0.0000000   0.0000000   0.0000000   0.0000000
 NMagM=    2.7928460   2.7928460   2.7928460   2.7928460   2.7928460   0.0000000   2.7928460   0.0000000   0.0000000   2.7928460

  Atom       131         132         133         134         135         136         137         138         139         140
 IAtWgt=           1          16           1          16           1          16          16           1           1          16
 AtmWgt=   1.0078250  15.9949146   1.0078250  15.9949146   1.0078250  15.9949146  15.9949146   1.0078250   1.0078250  15.9949146
 NucSpn=           1           0           1           0           1           0           0           1           1           0
 AtZEff=   0.0000000   0.0000000   0.0000000   0.0000000   0.0000000   0.0000000   0.0000000   0.0000000   0.0000000   0.0000000
 NQMom=    0.0000000   0.0000000   0.0000000   0.0000000   0.0000000   0.0000000   0.0000000   0.0000000   0.0000000   0.0000000
 NMagM=    2.7928460   0.0000000   2.7928460   0.0000000   2.7928460   0.0000000   0.0000000   2.7928460   2.7928460   0.0000000

  Atom       141         142         143         144         145         146         147         148         149         150
 IAtWgt=          16          12          16          12          16          12          16          12           1           1
 AtmWgt=  15.9949146  12.0000000  15.9949146  12.0000000  15.9949146  12.0000000  15.9949146  12.0000000   1.0078250   1.0078250
 NucSpn=           0           0           0           0           0           0           0           0           1           1
 AtZEff=   0.0000000   0.0000000   0.0000000   0.0000000   0.0000000   0.0000000   0.0000000   0.0000000   0.0000000   0.0000000
 NQMom=    0.0000000   0.0000000   0.0000000   0.0000000   0.0000000   0.0000000   0.0000000   0.0000000   0.0000000   0.0000000
 NMagM=    0.0000000   0.0000000   0.0000000   0.0000000   0.0000000   0.0000000   0.0000000   0.0000000   2.7928460   2.7928460

  Atom       151         152         153         154         155         156         157         158         159         160
 IAtWgt=           1           1           1           1           1           1           1           1           1           1
 AtmWgt=   1.0078250   1.0078250   1.0078250   1.0078250   1.0078250   1.0078250   1.0078250   1.0078250   1.0078250   1.0078250
 NucSpn=           1           1           1           1           1           1           1           1           1           1
 AtZEff=   0.0000000   0.0000000   0.0000000   0.0000000   0.0000000   0.0000000   0.0000000   0.0000000   0.0000000   0.0000000
 NQMom=    0.0000000   0.0000000   0.0000000   0.0000000   0.0000000   0.0000000   0.0000000   0.0000000   0.0000000   0.0000000
 NMagM=    2.7928460   2.7928460   2.7928460   2.7928460   2.7928460   2.7928460   2.7928460   2.7928460   2.7928460   2.7928460

  Atom       161         162         163         164         165         166         167         168         169         170
 IAtWgt=          12          12           1          12          12           1           1           1           1           1
 AtmWgt=  12.0000000  12.0000000   1.0078250  12.0000000  12.0000000   1.0078250   1.0078250   1.0078250   1.0078250   1.0078250
 NucSpn=           0           0           1           0           0           1           1           1           1           1
 AtZEff=   0.0000000   0.0000000   0.0000000   0.0000000   0.0000000   0.0000000   0.0000000   0.0000000   0.0000000   0.0000000
 NQMom=    0.0000000   0.0000000   0.0000000   0.0000000   0.0000000   0.0000000   0.0000000   0.0000000   0.0000000   0.0000000
 NMagM=    0.0000000   0.0000000   2.7928460   0.0000000   0.0000000   2.7928460   2.7928460   2.7928460   2.7928460   2.7928460

  Atom       171         172         173         174         175         176         177         178         179         180
 IAtWgt=           1           1           1           1           1           1           1          12          12          12
 AtmWgt=   1.0078250   1.0078250   1.0078250   1.0078250   1.0078250   1.0078250   1.0078250  12.0000000  12.0000000  12.0000000
 NucSpn=           1           1           1           1           1           1           1           0           0           0
 AtZEff=   0.0000000   0.0000000   0.0000000   0.0000000   0.0000000   0.0000000   0.0000000   0.0000000   0.0000000   0.0000000
 NQMom=    0.0000000   0.0000000   0.0000000   0.0000000   0.0000000   0.0000000   0.0000000   0.0000000   0.0000000   0.0000000
 NMagM=    2.7928460   2.7928460   2.7928460   2.7928460   2.7928460   2.7928460   2.7928460   0.0000000   0.0000000   0.0000000

  Atom       181         182         183         184         185         186         187         188         189         190
 IAtWgt=          12           1           1           1           1           1           1           1           1           1
 AtmWgt=  12.0000000   1.0078250   1.0078250   1.0078250   1.0078250   1.0078250   1.0078250   1.0078250   1.0078250   1.0078250
 NucSpn=           0           1           1           1           1           1           1           1           1           1
 AtZEff=   0.0000000   0.0000000   0.0000000   0.0000000   0.0000000   0.0000000   0.0000000   0.0000000   0.0000000   0.0000000
 NQMom=    0.0000000   0.0000000   0.0000000   0.0000000   0.0000000   0.0000000   0.0000000   0.0000000   0.0000000   0.0000000
 NMagM=    0.0000000   2.7928460   2.7928460   2.7928460   2.7928460   2.7928460   2.7928460   2.7928460   2.7928460   2.7928460

  Atom       191         192         193
 IAtWgt=           1           1           1
 AtmWgt=   1.0078250   1.0078250   1.0078250
 NucSpn=           1           1           1
 AtZEff=   0.0000000   0.0000000   0.0000000
 NQMom=    0.0000000   0.0000000   0.0000000
 NMagM=    2.7928460   2.7928460   2.7928460
 Leave Link  101 at Tue Feb  3 16:53:02 2015, MaxMem= 2147483648 cpu:       4.1
 (Enter /opt/g09/l202.exe)
 Stoichiometry    C89H84N4O16(1+,2)
 Framework group  C1[X(C89H84N4O16)]
 Deg. of freedom   573
 Full point group                 C1      NOp   1
 Largest Abelian subgroup         C1      NOp   1
 Largest concise Abelian subgroup C1      NOp   1
                         Standard orientation:                         
 ---------------------------------------------------------------------
 Center     Atomic      Atomic             Coordinates (Angstroms)
 Number     Number       Type             X           Y           Z
 ---------------------------------------------------------------------
      1          6           0       -0.013749    0.092784   -0.242204
      2          6           0       -0.729903   -0.833780   -1.228218
      3          6           0       -0.455133   -0.457645   -2.556561
      4          6           0        0.458570    0.688742   -2.539112
      5          6           0        0.721541    1.036253   -1.200069
      6          6           0       -0.979303    0.767138    0.739183
      7          6           0       -0.618531    0.474165    2.069553
      8          6           0        0.580776   -0.367292    2.058321
      9          6           0        0.938202   -0.624252    0.720651
     10          6           0       -2.116330    1.500992    0.444125
     11          6           0       -2.928174    1.968288    1.496025
     12          6           0       -2.553889    1.697712    2.824864
     13          6           0       -1.413054    0.951751    3.113960
     14          6           0        1.085420    1.399377   -3.566706
     15          6           0        1.975585    2.423040   -3.249607
     16          6           0        2.269689    2.742234   -1.909338
     17          6           0        1.613541    2.046447   -0.877881
     18          6           0       -1.579287   -1.888601   -0.937291
     19          6           0       -2.167243   -2.609351   -1.989883
     20          6           0       -1.880550   -2.247368   -3.319079
     21          6           0       -1.038919   -1.173548   -3.605629
     22          6           0        1.351963   -0.912715    3.087314
     23          6           0        2.451018   -1.710916    2.774919
     24          6           0        2.806968   -1.966459    1.437851
     25          6           0        2.036906   -1.403541    0.402427
     26          7           0       -4.133822    2.666733    1.224578
     27          7           0        3.217008    3.749306   -1.596139
     28          7           0       -3.026817   -3.707670   -1.701827
     29          7           0        3.937698   -2.769631    1.138521
     30          6           0        5.088241   -2.679498    1.967406
     31          6           0       -2.655975   -4.575579   -0.634088
     32          6           0        3.929205   -3.682801    0.047727
     33          6           0       -4.311792   -3.825530   -2.285468
     34          6           0       -4.230202    3.607003    0.164313
     35          6           0       -5.262883    2.446469    2.060825
     36          6           0        4.455310    3.848501   -2.274322
     37          6           0        2.932246    4.651387   -0.531399
     38          6           0        5.120686    5.076599   -2.380501
     39          6           0        6.362238    5.180843   -3.013596
     40          6           0        6.960918    4.050802   -3.575584
     41          6           0        6.302437    2.817702   -3.480226
     42          6           0        5.078617    2.714825   -2.833769
     43          6           0       -5.436614    3.790716   -0.521354
     44          6           0       -5.555474    4.732293   -1.547838
     45          6           0       -4.450520    5.500496   -1.921470
     46          6           0       -3.237450    5.321249   -1.241963
     47          6           0       -3.130248    4.401621   -0.209588
     48          6           0       -5.792493    3.507298    2.843817
     49          6           0       -6.888804    3.308450    3.678476
     50          6           0       -7.463927    2.033159    3.780930
     51          6           0       -6.955234    0.969494    3.038771
     52          6           0       -5.869227    1.184735    2.178784
     53          6           0        3.466558    4.453120    0.753923
     54          6           0        3.194659    5.349834    1.799749
     55          6           0        2.363601    6.444780    1.549612
     56          6           0        1.807444    6.661673    0.283579
     57          6           0        2.097771    5.769610   -0.749157
     58          6           0       -1.584181   -5.469986   -0.768295
     59          6           0       -1.172102   -6.292326    0.288053
     60          6           0       -1.852543   -6.228590    1.503328
     61          6           0       -2.927040   -5.342811    1.672508
     62          6           0       -3.308812   -4.508293    0.624636
     63          6           0       -4.961950   -2.736392   -2.883840
     64          6           0       -6.224136   -2.874128   -3.467759
     65          6           0       -6.879650   -4.107943   -3.449675
     66          6           0       -6.247441   -5.198284   -2.839702
     67          6           0       -4.986662   -5.062486   -2.274775
     68          6           0        2.742516   -4.321928   -0.359466
     69          6           0        2.736732   -5.204066   -1.429603
     70          6           0        3.924990   -5.504817   -2.110894
     71          6           0        5.115089   -4.897909   -1.702963
     72          6           0        5.108326   -3.987582   -0.641251
     73          6           0        5.800142   -1.478065    2.115727
     74          6           0        6.912249   -1.378981    2.962583
     75          6           0        7.342186   -2.505705    3.660477
     76          6           0        6.660163   -3.724318    3.528492
     77          6           0        5.537858   -3.805212    2.708219
     78          1           0        2.305145   -1.582422   -0.633721
     79          1           0       -1.804230   -2.152993    0.090550
     80          1           0       -2.326757   -2.816316   -4.128923
     81          1           0       -0.832882   -0.912424   -4.640764
     82          1           0        0.886317    1.163217   -4.609322
     83          1           0        2.462754    2.983402   -4.040944
     84          1           0        1.096564   -0.735058    4.129339
     85          1           0        3.044479   -2.149671    3.570518
     86          1           0       -1.154282    0.745533    4.149821
     87          1           0       -3.176284    2.069111    3.632402
     88          1           0        1.844111    2.273318    0.157103
     89          1           0       -2.396066    1.694338   -0.586681
     90          8           0        3.813287   -6.397313   -3.147115
     91          6           0        4.982620   -6.708906   -3.879863
     92          8           0       -8.118016   -4.352159   -3.988955
     93          6           0       -8.788544   -3.274920   -4.614839
     94          8           0        8.169337    4.039131   -4.227187
     95          8           0       -4.447061    6.443805   -2.916926
     96          6           0       -5.645767    6.642240   -3.642884
     97          6           0        8.860136    5.266655   -4.357215
     98          1           0        6.776675    1.940769   -3.911037
     99          1           0        4.594715    1.746771   -2.762149
    100          1           0       -6.304452    3.200686   -0.244478
    101          1           0        6.839668    6.153035   -3.068392
    102          1           0        4.666654    5.967784   -1.961200
    103          1           0       -2.385829    5.928324   -1.533547
    104          1           0       -2.186954    4.294279    0.314724
    105          1           0        6.041134   -3.519376   -0.342890
    106          1           0        6.053020   -5.107713   -2.205236
    107          1           0        1.808140   -5.666863   -1.749476
    108          1           0        1.813084   -4.118490    0.160709
    109          1           0       -6.683590   -2.003543   -3.922975
    110          1           0       -4.480160   -1.765403   -2.901334
    111          1           0       -6.760345   -6.155350   -2.824420
    112          1           0       -4.518865   -5.923194   -1.808434
    113          1           0       -8.217140   -2.879329   -5.466295
    114          1           0       -8.989321   -2.455201   -3.910659
    115          1           0       -9.737409   -3.677573   -4.975774
    116          1           0       -6.463981    6.982356   -2.992692
    117          1           0       -5.961557    5.727450   -4.163341
    118          1           0       -5.428044    7.417714   -4.380314
    119          1           0        9.779669    5.040657   -4.901554
    120          1           0        9.116950    5.695920   -3.378370
    121          1           0        8.276510    6.004411   -4.925689
    122          1           0        5.748359   -7.178543   -3.246212
    123          1           0        5.414193   -5.817613   -4.356393
    124          1           0        4.675838   -7.416113   -4.653565
    125          1           0       -3.414130   -5.311899    2.638427
    126          8           0       -4.285999   -3.568209    0.726951
    127          1           0       -0.328883   -6.950223    0.121926
    128          8           0       -0.835506   -5.517760   -1.922128
    129          8           0        5.389766   -0.320013    1.497937
    130          1           0        7.407395   -0.419350    3.037063
    131          1           0        7.017594   -4.572282    4.098456
    132          8           0        4.792075   -4.933066    2.561531
    133          1           0        3.615701    5.186603    2.780911
    134          8           0        4.233489    3.340344    0.906555
    135          1           0        1.171105    7.525835    0.144322
    136          8           0        1.622969    5.901276   -2.017057
    137          8           0       -5.380352    0.078853    1.525373
    138          1           0       -7.368589   -0.029526    3.089089
    139          1           0       -7.303978    4.105439    4.281742
    140          8           0       -5.144803    4.696912    2.721715
    141          8           0       -1.550065   -6.986859    2.596878
    142          6           0       -0.444643   -7.872348    2.509569
    143          8           0       -8.522972    1.942174    4.638613
    144          6           0       -9.145810    0.677621    4.797857
    145          8           0        2.029074    7.375866    2.491703
    146          6           0        2.525849    7.214332    3.809541
    147          8           0        8.419258   -2.531975    4.500458
    148          6           0        9.156644   -1.333211    4.676211
    149          1           0       -0.371897   -8.356062    3.485584
    150          1           0        0.487615   -7.332474    2.299154
    151          1           0       -0.600005   -8.636790    1.736771
    152          1           0        9.961362   -1.575972    5.372859
    153          1           0        8.534742   -0.535559    5.103648
    154          1           0        9.588926   -0.982901    3.729666
    155          1           0        2.127109    8.052890    4.383807
    156          1           0        3.623273    7.248020    3.836215
    157          1           0        2.182961    6.272687    4.258189
    158          1           0       -9.573333    0.316417    3.853174
    159          1           0       -9.947894    0.828025    5.522971
    160          1           0       -8.442761   -0.072356    5.183509
    161          6           0        5.200600   -6.108296    3.241204
    162          6           0        4.706442    3.003804    2.206247
    163          1           0       -6.511138    4.843884   -2.048003
    164          6           0       -5.633141    5.812741    3.448078
    165          6           0       -4.888100   -3.353769    1.998919
    166          1           0       -5.519386   -2.472492    1.885752
    167          1           0       -4.130778   -3.150475    2.765606
    168          1           0       -5.492344   -4.218648    2.302092
    169          1           0        4.477859   -6.877229    2.962729
    170          1           0        5.185373   -5.970780    4.330542
    171          1           0        6.205161   -6.424412    2.931641
    172          1           0        5.177147    2.025207    2.107347
    173          1           0        3.879089    2.930849    2.923143
    174          1           0        5.437383    3.740134    2.566461
    175          1           0       -5.588789    5.639291    4.531387
    176          1           0       -6.664843    6.057209    3.163934
    177          1           0       -4.977923    6.645343    3.186565
    178          6           0        5.573529   -0.250001    0.078098
    179          6           0        0.761498    6.991053   -2.304474
    180          6           0       -5.522290    0.049995    0.099839
    181          6           0       -1.456635   -6.134875   -3.051346
    182          1           0        0.491984    6.886962   -3.356796
    183          1           0        1.264081    7.954945   -2.149363
    184          1           0       -0.148185    6.958295   -1.691122
    185          1           0       -0.720973   -6.094921   -3.857424
    186          1           0       -2.363664   -5.603864   -3.355350
    187          1           0       -1.702742   -7.183446   -2.834811
    188          1           0       -5.114041   -0.910193   -0.220609
    189          1           0       -6.582160    0.111542   -0.181521
    190          1           0       -4.969909    0.863133   -0.378722
    191          1           0        5.212060    0.735315   -0.221525
    192          1           0        5.002861   -1.025965   -0.440063
    193          1           0        6.637512   -0.345307   -0.176153
 ---------------------------------------------------------------------
 Rotational constants (GHZ):      0.0145623      0.0120596      0.0088244
 Leave Link  202 at Tue Feb  3 16:53:02 2015, MaxMem= 2147483648 cpu:       1.0
 (Enter /opt/g09/l301.exe)
 Standard basis: CC-pVDZ (5D, 7F)
 Ernie: Thresh=  0.10000D-02 Tol=  0.10000D-05 Strict=F.
 Ernie:  218 primitive shells out of 2818 were deleted.
 There are  1946 symmetry adapted basis functions of A   symmetry.
 Integral buffers will be    131072 words long.
 Raffenetti 2 integral format.
 Two-electron integral symmetry is turned on.
  1946 basis functions,  4185 primitive gaussians,  2055 cartesian basis functions
   387 alpha electrons      386 beta electrons
       nuclear repulsion energy     22959.8279949753 Hartrees.
 IExCor=  402 DFT=T Ex+Corr=B3LYP ExCW=0 ScaHFX=  0.200000
 ScaDFX=  0.800000  0.720000  1.000000  0.810000 ScalE2=  1.000000  1.000000
 IRadAn=      0 IRanWt=     -1 IRanGd=            0 ICorTp=0
 NAtoms=  193 NActive=  193 NUniq=  193 SFac= 7.50D-01 NAtFMM=   80 NAOKFM=T Big=T
 Leave Link  301 at Tue Feb  3 16:53:03 2015, MaxMem= 2147483648 cpu:       2.1
 (Enter /opt/g09/l302.exe)
 NPDir=0 NMtPBC=     1 NCelOv=     1 NCel=       1 NClECP=     1 NCelD=      1
         NCelK=      1 NCelE2=     1 NClLst=     1 CellRange=     0.0.
 One-electron integrals computed using PRISM.
 NBasis=  1946 RedAO= T  NBF=  1946
 NBsUse=  1946 1.00D-06 NBFU=  1946
 Precomputing XC quadrature grid using
 IXCGrd= 2 IRadAn=           0 IRanWt=          -1 IRanGd=           0 AccXCQ= 1.00D-10.
 NRdTot=   12655 NPtTot=     1622402 NUsed=     1713509 NTot=     1713541
 NSgBfM=  1392  1397  1403  1407  1408 NAtAll=   193   185.
 Leave Link  302 at Tue Feb  3 16:54:15 2015, MaxMem= 2147483648 cpu:     868.9
 (Enter /opt/g09/l303.exe)
 DipDrv:  MaxL=1.
 Leave Link  303 at Tue Feb  3 16:54:21 2015, MaxMem= 2147483648 cpu:      62.0
 (Enter /opt/g09/l401.exe)
 Harris functional with IExCor=  402 diagonalized for initial guess.
 ExpMin= 1.22D-01 ExpMax= 1.17D+04 ExpMxC= 4.01D+02 IAcc=1 IRadAn=         1 AccDes= 0.00D+00
 HarFok:  IExCor=  402 AccDes= 0.00D+00 IRadAn=         1 IDoV= 1
 ScaDFX=  1.000000  1.000000  1.000000  1.000000
 FoFCou: FMM=F IPFlag=           0 FMFlag=      100000 FMFlg1=        2001
         NFxFlg=           0 DoJE=T BraDBF=F KetDBF=T FulRan=T
         Omega=  0.000000  0.000000  1.000000  0.000000  0.000000 ICntrl=     500 IOpCl=  0
         NMat0=    1 NMatS0=    1 NMatT0=    0 NMatD0=    1 NMtDS0=    0 NMtDT0=    0
         I1Cent=           4 NGrid=           0.
 Petite list used in FoFCou.
 Harris En= -4864.58552211446    
 Initial guess orbital symmetries:
 Alpha Orbitals:
       Occupied  (A) (A) (A) (A) (A) (A) (A) (A) (A) (A) (A) (A)
                 (A) (A) (A) (A) (A) (A) (A) (A) (A) (A) (A) (A)
                 (A) (A) (A) (A) (A) (A) (A) (A) (A) (A) (A) (A)
                 (A) (A) (A) (A) (A) (A) (A) (A) (A) (A) (A) (A)
                 (A) (A) (A) (A) (A) (A) (A) (A) (A) (A) (A) (A)
                 (A) (A) (A) (A) (A) (A) (A) (A) (A) (A) (A) (A)
                 (A) (A) (A) (A) (A) (A) (A) (A) (A) (A) (A) (A)
                 (A) (A) (A) (A) (A) (A) (A) (A) (A) (A) (A) (A)
                 (A) (A) (A) (A) (A) (A) (A) (A) (A) (A) (A) (A)
                 (A) (A) (A) (A) (A) (A) (A) (A) (A) (A) (A) (A)
                 (A) (A) (A) (A) (A) (A) (A) (A) (A) (A) (A) (A)
                 (A) (A) (A) (A) (A) (A) (A) (A) (A) (A) (A) (A)
                 (A) (A) (A) (A) (A) (A) (A) (A) (A) (A) (A) (A)
                 (A) (A) (A) (A) (A) (A) (A) (A) (A) (A) (A) (A)
                 (A) (A) (A) (A) (A) (A) (A) (A) (A) (A) (A) (A)
                 (A) (A) (A) (A) (A) (A) (A) (A) (A) (A) (A) (A)
                 (A) (A) (A) (A) (A) (A) (A) (A) (A) (A) (A) (A)
                 (A) (A) (A) (A) (A) (A) (A) (A) (A) (A) (A) (A)
                 (A) (A) (A) (A) (A) (A) (A) (A) (A) (A) (A) (A)
                 (A) (A) (A) (A) (A) (A) (A) (A) (A) (A) (A) (A)
                 (A) (A) (A) (A) (A) (A) (A) (A) (A) (A) (A) (A)
                 (A) (A) (A) (A) (A) (A) (A) (A) (A) (A) (A) (A)
                 (A) (A) (A) (A) (A) (A) (A) (A) (A) (A) (A) (A)
                 (A) (A) (A) (A) (A) (A) (A) (A) (A) (A) (A) (A)
                 (A) (A) (A) (A) (A) (A) (A) (A) (A) (A) (A) (A)
                 (A) (A) (A) (A) (A) (A) (A) (A) (A) (A) (A) (A)
                 (A) (A) (A) (A) (A) (A) (A) (A) (A) (A) (A) (A)
                 (A) (A) (A) (A) (A) (A) (A) (A) (A) (A) (A) (A)
                 (A) (A) (A) (A) (A) (A) (A) (A) (A) (A) (A) (A)
                 (A) (A) (A) (A) (A) (A) (A) (A) (A) (A) (A) (A)
                 (A) (A) (A) (A) (A) (A) (A) (A) (A) (A) (A) (A)
                 (A) (A) (A) (A) (A) (A) (A) (A) (A) (A) (A) (A)
                 (A) (A) (A)
       Virtual   (A) (A) (A) (A) (A) (A) (A) (A) (A) (A) (A) (A)
                 (A) (A) (A) (A) (A) (A) (A) (A) (A) (A) (A) (A)
                 (A) (A) (A) (A) (A) (A) (A) (A) (A) (A) (A) (A)
                 (A) (A) (A) (A) (A) (A) (A) (A) (A) (A) (A) (A)
                 (A) (A) (A) (A) (A) (A) (A) (A) (A) (A) (A) (A)
                 (A) (A) (A) (A) (A) (A) (A) (A) (A) (A) (A) (A)
                 (A) (A) (A) (A) (A) (A) (A) (A) (A) (A) (A) (A)
                 (A) (A) (A) (A) (A) (A) (A) (A) (A) (A) (A) (A)
                 (A) (A) (A) (A) (A) (A) (A) (A) (A) (A) (A) (A)
                 (A) (A) (A) (A) (A) (A) (A) (A) (A) (A) (A) (A)
                 (A) (A) (A) (A) (A) (A) (A) (A) (A) (A) (A) (A)
                 (A) (A) (A) (A) (A) (A) (A) (A) (A) (A) (A) (A)
                 (A) (A) (A) (A) (A) (A) (A) (A) (A) (A) (A) (A)
                 (A) (A) (A) (A) (A) (A) (A) (A) (A) (A) (A) (A)
                 (A) (A) (A) (A) (A) (A) (A) (A) (A) (A) (A) (A)
                 (A) (A) (A) (A) (A) (A) (A) (A) (A) (A) (A) (A)
                 (A) (A) (A) (A) (A) (A) (A) (A) (A) (A) (A) (A)
                 (A) (A) (A) (A) (A) (A) (A) (A) (A) (A) (A) (A)
                 (A) (A) (A) (A) (A) (A) (A) (A) (A) (A) (A) (A)
                 (A) (A) (A) (A) (A) (A) (A) (A) (A) (A) (A) (A)
                 (A) (A) (A) (A) (A) (A) (A) (A) (A) (A) (A) (A)
                 (A) (A) (A) (A) (A) (A) (A) (A) (A) (A) (A) (A)
                 (A) (A) (A) (A) (A) (A) (A) (A) (A) (A) (A) (A)
                 (A) (A) (A) (A) (A) (A) (A) (A) (A) (A) (A) (A)
                 (A) (A) (A) (A) (A) (A) (A) (A) (A) (A) (A) (A)
                 (A) (A) (A) (A) (A) (A) (A) (A) (A) (A) (A) (A)
                 (A) (A) (A) (A) (A) (A) (A) (A) (A) (A) (A) (A)
                 (A) (A) (A) (A) (A) (A) (A) (A) (A) (A) (A) (A)
                 (A) (A) (A) (A) (A) (A) (A) (A) (A) (A) (A) (A)
                 (A) (A) (A) (A) (A) (A) (A) (A) (A) (A) (A) (A)
                 (A) (A) (A) (A) (A) (A) (A) (A) (A) (A) (A) (A)
                 (A) (A) (A) (A) (A) (A) (A) (A) (A) (A) (A) (A)
                 (A) (A) (A) (A) (A) (A) (A) (A) (A) (A) (A) (A)
                 (A) (A) (A) (A) (A) (A) (A) (A) (A) (A) (A) (A)
                 (A) (A) (A) (A) (A) (A) (A) (A) (A) (A) (A) (A)
                 (A) (A) (A) (A) (A) (A) (A) (A) (A) (A) (A) (A)
                 (A) (A) (A) (A) (A) (A) (A) (A) (A) (A) (A) (A)
                 (A) (A) (A) (A) (A) (A) (A) (A) (A) (A) (A) (A)
                 (A) (A) (A) (A) (A) (A) (A) (A) (A) (A) (A) (A)
                 (A) (A) (A) (A) (A) (A) (A) (A) (A) (A) (A) (A)
                 (A) (A) (A) (A) (A) (A) (A) (A) (A) (A) (A) (A)
                 (A) (A) (A) (A) (A) (A) (A) (A) (A) (A) (A) (A)
                 (A) (A) (A) (A) (A) (A) (A) (A) (A) (A) (A) (A)
                 (A) (A) (A) (A) (A) (A) (A) (A) (A) (A) (A) (A)
                 (A) (A) (A) (A) (A) (A) (A) (A) (A) (A) (A) (A)
                 (A) (A) (A) (A) (A) (A) (A) (A) (A) (A) (A) (A)
                 (A) (A) (A) (A) (A) (A) (A) (A) (A) (A) (A) (A)
                 (A) (A) (A) (A) (A) (A) (A) (A) (A) (A) (A) (A)
                 (A) (A) (A) (A) (A) (A) (A) (A) (A) (A) (A) (A)
                 (A) (A) (A) (A) (A) (A) (A) (A) (A) (A) (A) (A)
                 (A) (A) (A) (A) (A) (A) (A) (A) (A) (A) (A) (A)
                 (A) (A) (A) (A) (A) (A) (A) (A) (A) (A) (A) (A)
                 (A) (A) (A) (A) (A) (A) (A) (A) (A) (A) (A) (A)
                 (A) (A) (A) (A) (A) (A) (A) (A) (A) (A) (A) (A)
                 (A) (A) (A) (A) (A) (A) (A) (A) (A) (A) (A) (A)
                 (A) (A) (A) (A) (A) (A) (A) (A) (A) (A) (A) (A)
                 (A) (A) (A) (A) (A) (A) (A) (A) (A) (A) (A) (A)
                 (A) (A) (A) (A) (A) (A) (A) (A) (A) (A) (A) (A)
                 (A) (A) (A) (A) (A) (A) (A) (A) (A) (A) (A) (A)
                 (A) (A) (A) (A) (A) (A) (A) (A) (A) (A) (A) (A)
                 (A) (A) (A) (A) (A) (A) (A) (A) (A) (A) (A) (A)
                 (A) (A) (A) (A) (A) (A) (A) (A) (A) (A) (A) (A)
                 (A) (A) (A) (A) (A) (A) (A) (A) (A) (A) (A) (A)
                 (A) (A) (A) (A) (A) (A) (A) (A) (A) (A) (A) (A)
                 (A) (A) (A) (A) (A) (A) (A) (A) (A) (A) (A) (A)
                 (A) (A) (A) (A) (A) (A) (A) (A) (A) (A) (A) (A)
                 (A) (A) (A) (A) (A) (A) (A) (A) (A) (A) (A) (A)
                 (A) (A) (A) (A) (A) (A) (A) (A) (A) (A) (A) (A)
                 (A) (A) (A) (A) (A) (A) (A) (A) (A) (A) (A) (A)
                 (A) (A) (A) (A) (A) (A) (A) (A) (A) (A) (A) (A)
                 (A) (A) (A) (A) (A) (A) (A) (A) (A) (A) (A) (A)
                 (A) (A) (A) (A) (A) (A) (A) (A) (A) (A) (A) (A)
                 (A) (A) (A) (A) (A) (A) (A) (A) (A) (A) (A) (A)
                 (A) (A) (A) (A) (A) (A) (A) (A) (A) (A) (A) (A)
                 (A) (A) (A) (A) (A) (A) (A) (A) (A) (A) (A) (A)
                 (A) (A) (A) (A) (A) (A) (A) (A) (A) (A) (A) (A)
                 (A) (A) (A) (A) (A) (A) (A) (A) (A) (A) (A) (A)
                 (A) (A) (A) (A) (A) (A) (A) (A) (A) (A) (A) (A)
                 (A) (A) (A) (A) (A) (A) (A) (A) (A) (A) (A) (A)
                 (A) (A) (A) (A) (A) (A) (A) (A) (A) (A) (A) (A)
                 (A) (A) (A) (A) (A) (A) (A) (A) (A) (A) (A) (A)
                 (A) (A) (A) (A) (A) (A) (A) (A) (A) (A) (A) (A)
                 (A) (A) (A) (A) (A) (A) (A) (A) (A) (A) (A) (A)
                 (A) (A) (A) (A) (A) (A) (A) (A) (A) (A) (A) (A)
                 (A) (A) (A) (A) (A) (A) (A) (A) (A) (A) (A) (A)
                 (A) (A) (A) (A) (A) (A) (A) (A) (A) (A) (A) (A)
                 (A) (A) (A) (A) (A) (A) (A) (A) (A) (A) (A) (A)
                 (A) (A) (A) (A) (A) (A) (A) (A) (A) (A) (A) (A)
                 (A) (A) (A) (A) (A) (A) (A) (A) (A) (A) (A) (A)
                 (A) (A) (A) (A) (A) (A) (A) (A) (A) (A) (A) (A)
                 (A) (A) (A) (A) (A) (A) (A) (A) (A) (A) (A) (A)
                 (A) (A) (A) (A) (A) (A) (A) (A) (A) (A) (A) (A)
                 (A) (A) (A) (A) (A) (A) (A) (A) (A) (A) (A) (A)
                 (A) (A) (A) (A) (A) (A) (A) (A) (A) (A) (A) (A)
                 (A) (A) (A) (A) (A) (A) (A) (A) (A) (A) (A) (A)
                 (A) (A) (A) (A) (A) (A) (A) (A) (A) (A) (A) (A)
                 (A) (A) (A) (A) (A) (A) (A) (A) (A) (A) (A) (A)
                 (A) (A) (A) (A) (A) (A) (A) (A) (A) (A) (A) (A)
                 (A) (A) (A) (A) (A) (A) (A) (A) (A) (A) (A) (A)
                 (A) (A) (A) (A) (A) (A) (A) (A) (A) (A) (A) (A)
                 (A) (A) (A) (A) (A) (A) (A) (A) (A) (A) (A) (A)
                 (A) (A) (A) (A) (A) (A) (A) (A) (A) (A) (A) (A)
                 (A) (A) (A) (A) (A) (A) (A) (A) (A) (A) (A) (A)
                 (A) (A) (A) (A) (A) (A) (A) (A) (A) (A) (A) (A)
                 (A) (A) (A) (A) (A) (A) (A) (A) (A) (A) (A) (A)
                 (A) (A) (A) (A) (A) (A) (A) (A) (A) (A) (A) (A)
                 (A) (A) (A) (A) (A) (A) (A) (A) (A) (A) (A) (A)
                 (A) (A) (A) (A) (A) (A) (A) (A) (A) (A) (A) (A)
                 (A) (A) (A) (A) (A) (A) (A) (A) (A) (A) (A) (A)
                 (A) (A) (A) (A) (A) (A) (A) (A) (A) (A) (A) (A)
                 (A) (A) (A) (A) (A) (A) (A) (A) (A) (A) (A) (A)
                 (A) (A) (A) (A) (A) (A) (A) (A) (A) (A) (A) (A)
                 (A) (A) (A) (A) (A) (A) (A) (A) (A) (A) (A) (A)
                 (A) (A) (A) (A) (A) (A) (A) (A) (A) (A) (A) (A)
                 (A) (A) (A) (A) (A) (A) (A) (A) (A) (A) (A) (A)
                 (A) (A) (A) (A) (A) (A) (A) (A) (A) (A) (A) (A)
                 (A) (A) (A) (A) (A) (A) (A) (A) (A) (A) (A) (A)
                 (A) (A) (A) (A) (A) (A) (A) (A) (A) (A) (A) (A)
                 (A) (A) (A) (A) (A) (A) (A) (A) (A) (A) (A) (A)
                 (A) (A) (A) (A) (A) (A) (A) (A) (A) (A) (A) (A)
                 (A) (A) (A) (A) (A) (A) (A) (A) (A) (A) (A) (A)
                 (A) (A) (A) (A) (A) (A) (A) (A) (A) (A) (A) (A)
                 (A) (A) (A) (A) (A) (A) (A) (A) (A) (A) (A) (A)
                 (A) (A) (A) (A) (A) (A) (A) (A) (A) (A) (A) (A)
                 (A) (A) (A) (A) (A) (A) (A) (A) (A) (A) (A) (A)
                 (A) (A) (A) (A) (A) (A) (A) (A) (A) (A) (A) (A)
                 (A) (A) (A) (A) (A) (A) (A) (A) (A) (A) (A) (A)
                 (A) (A) (A) (A) (A) (A) (A) (A) (A) (A) (A) (A)
                 (A) (A) (A) (A) (A) (A) (A) (A) (A) (A) (A) (A)
                 (A) (A) (A) (A) (A) (A) (A) (A) (A) (A) (A)
 Beta  Orbitals:
       Occupied  (A) (A) (A) (A) (A) (A) (A) (A) (A) (A) (A) (A)
                 (A) (A) (A) (A) (A) (A) (A) (A) (A) (A) (A) (A)
                 (A) (A) (A) (A) (A) (A) (A) (A) (A) (A) (A) (A)
                 (A) (A) (A) (A) (A) (A) (A) (A) (A) (A) (A) (A)
                 (A) (A) (A) (A) (A) (A) (A) (A) (A) (A) (A) (A)
                 (A) (A) (A) (A) (A) (A) (A) (A) (A) (A) (A) (A)
                 (A) (A) (A) (A) (A) (A) (A) (A) (A) (A) (A) (A)
                 (A) (A) (A) (A) (A) (A) (A) (A) (A) (A) (A) (A)
                 (A) (A) (A) (A) (A) (A) (A) (A) (A) (A) (A) (A)
                 (A) (A) (A) (A) (A) (A) (A) (A) (A) (A) (A) (A)
                 (A) (A) (A) (A) (A) (A) (A) (A) (A) (A) (A) (A)
                 (A) (A) (A) (A) (A) (A) (A) (A) (A) (A) (A) (A)
                 (A) (A) (A) (A) (A) (A) (A) (A) (A) (A) (A) (A)
                 (A) (A) (A) (A) (A) (A) (A) (A) (A) (A) (A) (A)
                 (A) (A) (A) (A) (A) (A) (A) (A) (A) (A) (A) (A)
                 (A) (A) (A) (A) (A) (A) (A) (A) (A) (A) (A) (A)
                 (A) (A) (A) (A) (A) (A) (A) (A) (A) (A) (A) (A)
                 (A) (A) (A) (A) (A) (A) (A) (A) (A) (A) (A) (A)
                 (A) (A) (A) (A) (A) (A) (A) (A) (A) (A) (A) (A)
                 (A) (A) (A) (A) (A) (A) (A) (A) (A) (A) (A) (A)
                 (A) (A) (A) (A) (A) (A) (A) (A) (A) (A) (A) (A)
                 (A) (A) (A) (A) (A) (A) (A) (A) (A) (A) (A) (A)
                 (A) (A) (A) (A) (A) (A) (A) (A) (A) (A) (A) (A)
                 (A) (A) (A) (A) (A) (A) (A) (A) (A) (A) (A) (A)
                 (A) (A) (A) (A) (A) (A) (A) (A) (A) (A) (A) (A)
                 (A) (A) (A) (A) (A) (A) (A) (A) (A) (A) (A) (A)
                 (A) (A) (A) (A) (A) (A) (A) (A) (A) (A) (A) (A)
                 (A) (A) (A) (A) (A) (A) (A) (A) (A) (A) (A) (A)
                 (A) (A) (A) (A) (A) (A) (A) (A) (A) (A) (A) (A)
                 (A) (A) (A) (A) (A) (A) (A) (A) (A) (A) (A) (A)
                 (A) (A) (A) (A) (A) (A) (A) (A) (A) (A) (A) (A)
                 (A) (A) (A) (A) (A) (A) (A) (A) (A) (A) (A) (A)
                 (A) (A)
       Virtual   (A) (A) (A) (A) (A) (A) (A) (A) (A) (A) (A) (A)
                 (A) (A) (A) (A) (A) (A) (A) (A) (A) (A) (A) (A)
                 (A) (A) (A) (A) (A) (A) (A) (A) (A) (A) (A) (A)
                 (A) (A) (A) (A) (A) (A) (A) (A) (A) (A) (A) (A)
                 (A) (A) (A) (A) (A) (A) (A) (A) (A) (A) (A) (A)
                 (A) (A) (A) (A) (A) (A) (A) (A) (A) (A) (A) (A)
                 (A) (A) (A) (A) (A) (A) (A) (A) (A) (A) (A) (A)
                 (A) (A) (A) (A) (A) (A) (A) (A) (A) (A) (A) (A)
                 (A) (A) (A) (A) (A) (A) (A) (A) (A) (A) (A) (A)
                 (A) (A) (A) (A) (A) (A) (A) (A) (A) (A) (A) (A)
                 (A) (A) (A) (A) (A) (A) (A) (A) (A) (A) (A) (A)
                 (A) (A) (A) (A) (A) (A) (A) (A) (A) (A) (A) (A)
                 (A) (A) (A) (A) (A) (A) (A) (A) (A) (A) (A) (A)
                 (A) (A) (A) (A) (A) (A) (A) (A) (A) (A) (A) (A)
                 (A) (A) (A) (A) (A) (A) (A) (A) (A) (A) (A) (A)
                 (A) (A) (A) (A) (A) (A) (A) (A) (A) (A) (A) (A)
                 (A) (A) (A) (A) (A) (A) (A) (A) (A) (A) (A) (A)
                 (A) (A) (A) (A) (A) (A) (A) (A) (A) (A) (A) (A)
                 (A) (A) (A) (A) (A) (A) (A) (A) (A) (A) (A) (A)
                 (A) (A) (A) (A) (A) (A) (A) (A) (A) (A) (A) (A)
                 (A) (A) (A) (A) (A) (A) (A) (A) (A) (A) (A) (A)
                 (A) (A) (A) (A) (A) (A) (A) (A) (A) (A) (A) (A)
                 (A) (A) (A) (A) (A) (A) (A) (A) (A) (A) (A) (A)
                 (A) (A) (A) (A) (A) (A) (A) (A) (A) (A) (A) (A)
                 (A) (A) (A) (A) (A) (A) (A) (A) (A) (A) (A) (A)
                 (A) (A) (A) (A) (A) (A) (A) (A) (A) (A) (A) (A)
                 (A) (A) (A) (A) (A) (A) (A) (A) (A) (A) (A) (A)
                 (A) (A) (A) (A) (A) (A) (A) (A) (A) (A) (A) (A)
                 (A) (A) (A) (A) (A) (A) (A) (A) (A) (A) (A) (A)
                 (A) (A) (A) (A) (A) (A) (A) (A) (A) (A) (A) (A)
                 (A) (A) (A) (A) (A) (A) (A) (A) (A) (A) (A) (A)
                 (A) (A) (A) (A) (A) (A) (A) (A) (A) (A) (A) (A)
                 (A) (A) (A) (A) (A) (A) (A) (A) (A) (A) (A) (A)
                 (A) (A) (A) (A) (A) (A) (A) (A) (A) (A) (A) (A)
                 (A) (A) (A) (A) (A) (A) (A) (A) (A) (A) (A) (A)
                 (A) (A) (A) (A) (A) (A) (A) (A) (A) (A) (A) (A)
                 (A) (A) (A) (A) (A) (A) (A) (A) (A) (A) (A) (A)
                 (A) (A) (A) (A) (A) (A) (A) (A) (A) (A) (A) (A)
                 (A) (A) (A) (A) (A) (A) (A) (A) (A) (A) (A) (A)
                 (A) (A) (A) (A) (A) (A) (A) (A) (A) (A) (A) (A)
                 (A) (A) (A) (A) (A) (A) (A) (A) (A) (A) (A) (A)
                 (A) (A) (A) (A) (A) (A) (A) (A) (A) (A) (A) (A)
                 (A) (A) (A) (A) (A) (A) (A) (A) (A) (A) (A) (A)
                 (A) (A) (A) (A) (A) (A) (A) (A) (A) (A) (A) (A)
                 (A) (A) (A) (A) (A) (A) (A) (A) (A) (A) (A) (A)
                 (A) (A) (A) (A) (A) (A) (A) (A) (A) (A) (A) (A)
                 (A) (A) (A) (A) (A) (A) (A) (A) (A) (A) (A) (A)
                 (A) (A) (A) (A) (A) (A) (A) (A) (A) (A) (A) (A)
                 (A) (A) (A) (A) (A) (A) (A) (A) (A) (A) (A) (A)
                 (A) (A) (A) (A) (A) (A) (A) (A) (A) (A) (A) (A)
                 (A) (A) (A) (A) (A) (A) (A) (A) (A) (A) (A) (A)
                 (A) (A) (A) (A) (A) (A) (A) (A) (A) (A) (A) (A)
                 (A) (A) (A) (A) (A) (A) (A) (A) (A) (A) (A) (A)
                 (A) (A) (A) (A) (A) (A) (A) (A) (A) (A) (A) (A)
                 (A) (A) (A) (A) (A) (A) (A) (A) (A) (A) (A) (A)
                 (A) (A) (A) (A) (A) (A) (A) (A) (A) (A) (A) (A)
                 (A) (A) (A) (A) (A) (A) (A) (A) (A) (A) (A) (A)
                 (A) (A) (A) (A) (A) (A) (A) (A) (A) (A) (A) (A)
                 (A) (A) (A) (A) (A) (A) (A) (A) (A) (A) (A) (A)
                 (A) (A) (A) (A) (A) (A) (A) (A) (A) (A) (A) (A)
                 (A) (A) (A) (A) (A) (A) (A) (A) (A) (A) (A) (A)
                 (A) (A) (A) (A) (A) (A) (A) (A) (A) (A) (A) (A)
                 (A) (A) (A) (A) (A) (A) (A) (A) (A) (A) (A) (A)
                 (A) (A) (A) (A) (A) (A) (A) (A) (A) (A) (A) (A)
                 (A) (A) (A) (A) (A) (A) (A) (A) (A) (A) (A) (A)
                 (A) (A) (A) (A) (A) (A) (A) (A) (A) (A) (A) (A)
                 (A) (A) (A) (A) (A) (A) (A) (A) (A) (A) (A) (A)
                 (A) (A) (A) (A) (A) (A) (A) (A) (A) (A) (A) (A)
                 (A) (A) (A) (A) (A) (A) (A) (A) (A) (A) (A) (A)
                 (A) (A) (A) (A) (A) (A) (A) (A) (A) (A) (A) (A)
                 (A) (A) (A) (A) (A) (A) (A) (A) (A) (A) (A) (A)
                 (A) (A) (A) (A) (A) (A) (A) (A) (A) (A) (A) (A)
                 (A) (A) (A) (A) (A) (A) (A) (A) (A) (A) (A) (A)
                 (A) (A) (A) (A) (A) (A) (A) (A) (A) (A) (A) (A)
                 (A) (A) (A) (A) (A) (A) (A) (A) (A) (A) (A) (A)
                 (A) (A) (A) (A) (A) (A) (A) (A) (A) (A) (A) (A)
                 (A) (A) (A) (A) (A) (A) (A) (A) (A) (A) (A) (A)
                 (A) (A) (A) (A) (A) (A) (A) (A) (A) (A) (A) (A)
                 (A) (A) (A) (A) (A) (A) (A) (A) (A) (A) (A) (A)
                 (A) (A) (A) (A) (A) (A) (A) (A) (A) (A) (A) (A)
                 (A) (A) (A) (A) (A) (A) (A) (A) (A) (A) (A) (A)
                 (A) (A) (A) (A) (A) (A) (A) (A) (A) (A) (A) (A)
                 (A) (A) (A) (A) (A) (A) (A) (A) (A) (A) (A) (A)
                 (A) (A) (A) (A) (A) (A) (A) (A) (A) (A) (A) (A)
                 (A) (A) (A) (A) (A) (A) (A) (A) (A) (A) (A) (A)
                 (A) (A) (A) (A) (A) (A) (A) (A) (A) (A) (A) (A)
                 (A) (A) (A) (A) (A) (A) (A) (A) (A) (A) (A) (A)
                 (A) (A) (A) (A) (A) (A) (A) (A) (A) (A) (A) (A)
                 (A) (A) (A) (A) (A) (A) (A) (A) (A) (A) (A) (A)
                 (A) (A) (A) (A) (A) (A) (A) (A) (A) (A) (A) (A)
                 (A) (A) (A) (A) (A) (A) (A) (A) (A) (A) (A) (A)
                 (A) (A) (A) (A) (A) (A) (A) (A) (A) (A) (A) (A)
                 (A) (A) (A) (A) (A) (A) (A) (A) (A) (A) (A) (A)
                 (A) (A) (A) (A) (A) (A) (A) (A) (A) (A) (A) (A)
                 (A) (A) (A) (A) (A) (A) (A) (A) (A) (A) (A) (A)
                 (A) (A) (A) (A) (A) (A) (A) (A) (A) (A) (A) (A)
                 (A) (A) (A) (A) (A) (A) (A) (A) (A) (A) (A) (A)
                 (A) (A) (A) (A) (A) (A) (A) (A) (A) (A) (A) (A)
                 (A) (A) (A) (A) (A) (A) (A) (A) (A) (A) (A) (A)
                 (A) (A) (A) (A) (A) (A) (A) (A) (A) (A) (A) (A)
                 (A) (A) (A) (A) (A) (A) (A) (A) (A) (A) (A) (A)
                 (A) (A) (A) (A) (A) (A) (A) (A) (A) (A) (A) (A)
                 (A) (A) (A) (A) (A) (A) (A) (A) (A) (A) (A) (A)
                 (A) (A) (A) (A) (A) (A) (A) (A) (A) (A) (A) (A)
                 (A) (A) (A) (A) (A) (A) (A) (A) (A) (A) (A) (A)
                 (A) (A) (A) (A) (A) (A) (A) (A) (A) (A) (A) (A)
                 (A) (A) (A) (A) (A) (A) (A) (A) (A) (A) (A) (A)
                 (A) (A) (A) (A) (A) (A) (A) (A) (A) (A) (A) (A)
                 (A) (A) (A) (A) (A) (A) (A) (A) (A) (A) (A) (A)
                 (A) (A) (A) (A) (A) (A) (A) (A) (A) (A) (A) (A)
                 (A) (A) (A) (A) (A) (A) (A) (A) (A) (A) (A) (A)
                 (A) (A) (A) (A) (A) (A) (A) (A) (A) (A) (A) (A)
                 (A) (A) (A) (A) (A) (A) (A) (A) (A) (A) (A) (A)
                 (A) (A) (A) (A) (A) (A) (A) (A) (A) (A) (A) (A)
                 (A) (A) (A) (A) (A) (A) (A) (A) (A) (A) (A) (A)
                 (A) (A) (A) (A) (A) (A) (A) (A) (A) (A) (A) (A)
                 (A) (A) (A) (A) (A) (A) (A) (A) (A) (A) (A) (A)
                 (A) (A) (A) (A) (A) (A) (A) (A) (A) (A) (A) (A)
                 (A) (A) (A) (A) (A) (A) (A) (A) (A) (A) (A) (A)
                 (A) (A) (A) (A) (A) (A) (A) (A) (A) (A) (A) (A)
                 (A) (A) (A) (A) (A) (A) (A) (A) (A) (A) (A) (A)
                 (A) (A) (A) (A) (A) (A) (A) (A) (A) (A) (A) (A)
                 (A) (A) (A) (A) (A) (A) (A) (A) (A) (A) (A) (A)
                 (A) (A) (A) (A) (A) (A) (A) (A) (A) (A) (A) (A)
                 (A) (A) (A) (A) (A) (A) (A) (A) (A) (A) (A) (A)
                 (A) (A) (A) (A) (A) (A) (A) (A) (A) (A) (A) (A)
                 (A) (A) (A) (A) (A) (A) (A) (A) (A) (A) (A) (A)
                 (A) (A) (A) (A) (A) (A) (A) (A) (A) (A) (A) (A)
                 (A) (A) (A) (A) (A) (A) (A) (A) (A) (A) (A) (A)
                 (A) (A) (A) (A) (A) (A) (A) (A) (A) (A) (A) (A)
 The electronic state of the initial guess is 2-A.
 Initial guess <Sx>= 0.0000 <Sy>= 0.0000 <Sz>= 0.5000 <S**2>= 0.7500 S= 0.5000
 Leave Link  401 at Tue Feb  3 16:55:43 2015, MaxMem= 2147483648 cpu:     980.7
 (Enter /opt/g09/l502.exe)
 UHF open shell SCF:
 Requested convergence on RMS density matrix=1.00D-08 within 128 cycles.
 Requested convergence on MAX density matrix=1.00D-06.
 Requested convergence on             energy=1.00D-06.
 No special actions if energy rises.
 Using DIIS extrapolation, IDIIS=  1040.
 Integral symmetry usage will be decided dynamically.
      1711759 words used for storage of precomputed grid.
 IEnd=    14463868 IEndB=    14463868 NGot=  2147483648 MDV=  2137261501
 LenX=  2137261501 LenY=  2133036421
 Fock matrices will be formed incrementally for  20 cycles.
 Integral accuracy reduced to 1.0D-05 until final iterations.

 Cycle   1  Pass 0  IDiag  1:
 FoFCou: FMM=T IPFlag=           0 FMFlag=      100000 FMFlg1=        2001
         NFxFlg=           0 DoJE=F BraDBF=F KetDBF=F FulRan=T
         Omega=  0.000000  0.000000  1.000000  0.000000  0.000000 ICntrl=       0 IOpCl=  1
         NMat0=    1 NMatS0=    1 NMatT0=    0 NMatD0=    1 NMtDS0=    0 NMtDT0=    0
         I1Cent=           0 NGrid=           0.
 Symmetry not used in FoFCou.
 FMM levels:  10  Number of levels for PrismC:   9
 E= -4862.57789330202    
 DIIS: error= 1.62D-02 at cycle   1 NSaved=   1.
 NSaved= 1 IEnMin= 1 EnMin= -4862.57789330202     IErMin= 1 ErrMin= 1.62D-02
 ErrMax= 1.62D-02 EMaxC= 1.00D-01 BMatC= 7.11D+00 BMatP= 7.11D+00
 IDIUse=3 WtCom= 8.38D-01 WtEn= 1.62D-01
 Coeff-Com:  0.100D+01
 Coeff-En:   0.100D+01
 Coeff:      0.100D+01
 Gap=     0.222 Goal=   None    Shift=    0.000
 Gap=    -0.044 Goal=   None    Shift=    0.000
 GapD=   -0.044 DampG=0.250 DampE=0.500 DampFc=0.2500 IDamp=-1.
 Damping current iteration by 2.50D-01
 RMSDP=1.98D-03 MaxDP=1.88D-01              OVMax= 6.88D-01

 Cycle   2  Pass 0  IDiag  1:
 RMSU=  3.31D-04    CP:  9.84D-01
 E= -4863.26937874455     Delta-E=       -0.691485442530 Rises=F Damp=T
 DIIS: error= 9.51D-03 at cycle   2 NSaved=   2.
 NSaved= 2 IEnMin= 2 EnMin= -4863.26937874455     IErMin= 2 ErrMin= 9.51D-03
 ErrMax= 9.51D-03 EMaxC= 1.00D-01 BMatC= 1.99D+00 BMatP= 7.11D+00
 IDIUse=3 WtCom= 9.05D-01 WtEn= 9.51D-02
 Coeff-Com: -0.915D+00 0.192D+01
 Coeff-En:   0.000D+00 0.100D+01
 Coeff:     -0.828D+00 0.183D+01
 Gap=     0.184 Goal=   None    Shift=    0.000
 Gap=    -0.002 Goal=   None    Shift=    0.000
 RMSDP=9.68D-04 MaxDP=1.33D-01 DE=-6.91D-01 OVMax= 7.77D-01

 Cycle   3  Pass 0  IDiag  1:
 RMSU=  4.35D-04    CP:  9.46D-01  2.35D+00
 E= -4864.27273258342     Delta-E=       -1.003353838874 Rises=F Damp=F
 DIIS: error= 7.58D-03 at cycle   3 NSaved=   3.
 NSaved= 3 IEnMin= 3 EnMin= -4864.27273258342     IErMin= 3 ErrMin= 7.58D-03
 ErrMax= 7.58D-03 EMaxC= 1.00D-01 BMatC= 8.99D-01 BMatP= 1.99D+00
 IDIUse=3 WtCom= 9.24D-01 WtEn= 7.58D-02
 Coeff-Com: -0.594D+00 0.118D+01 0.414D+00
 Coeff-En:   0.000D+00 0.000D+00 0.100D+01
 Coeff:     -0.549D+00 0.109D+01 0.458D+00
 Gap=     0.183 Goal=   None    Shift=    0.000
 Gap=     0.026 Goal=   None    Shift=    0.000
 RMSDP=6.12D-04 MaxDP=9.54D-02 DE=-1.00D+00 OVMax= 9.27D-01

 Cycle   4  Pass 0  IDiag  1:
 RMSU=  2.26D-04    CP:  9.47D-01  2.55D+00  3.06D-01
 E= -4864.37523362166     Delta-E=       -0.102501038244 Rises=F Damp=F
 DIIS: error= 5.53D-03 at cycle   4 NSaved=   4.
 NSaved= 4 IEnMin= 4 EnMin= -4864.37523362166     IErMin= 4 ErrMin= 5.53D-03
 ErrMax= 5.53D-03 EMaxC= 1.00D-01 BMatC= 4.98D-01 BMatP= 8.99D-01
 IDIUse=3 WtCom= 9.45D-01 WtEn= 5.53D-02
 Coeff-Com: -0.244D+00 0.482D+00 0.385D+00 0.377D+00
 Coeff-En:   0.000D+00 0.000D+00 0.411D+00 0.589D+00
 Coeff:     -0.231D+00 0.456D+00 0.386D+00 0.389D+00
 Gap=     0.153 Goal=   None    Shift=    0.000
 Gap=     0.003 Goal=   None    Shift=    0.000
 RMSDP=4.70D-04 MaxDP=6.69D-02 DE=-1.03D-01 OVMax= 7.59D-01

 Cycle   5  Pass 0  IDiag  1:
 RMSU=  1.16D-04    CP:  9.49D-01  2.32D+00  6.97D-01  1.92D-01
 E= -4864.49348219396     Delta-E=       -0.118248572293 Rises=F Damp=F
 DIIS: error= 2.64D-03 at cycle   5 NSaved=   5.
 NSaved= 5 IEnMin= 5 EnMin= -4864.49348219396     IErMin= 5 ErrMin= 2.64D-03
 ErrMax= 2.64D-03 EMaxC= 1.00D-01 BMatC= 9.77D-02 BMatP= 4.98D-01
 IDIUse=3 WtCom= 9.74D-01 WtEn= 2.64D-02
 Coeff-Com: -0.103D+00 0.203D+00 0.240D+00 0.325D+00 0.336D+00
 Coeff-En:   0.000D+00 0.000D+00 0.000D+00 0.235D+00 0.765D+00
 Coeff:     -0.100D+00 0.197D+00 0.233D+00 0.322D+00 0.347D+00
 Gap=     0.134 Goal=   None    Shift=    0.000
 Gap=     0.000 Goal=   None    Shift=    0.000
 RMSDP=4.10D-04 MaxDP=4.33D-02 DE=-1.18D-01 OVMax= 9.13D-01

 Cycle   6  Pass 0  IDiag  1:
 RMSU=  6.44D-05    CP:  9.48D-01  2.48D+00  4.71D-01  7.56D-01 -1.14D-01
 E= -4864.50842829565     Delta-E=       -0.014946101695 Rises=F Damp=F
 DIIS: error= 1.58D-03 at cycle   6 NSaved=   6.
 NSaved= 6 IEnMin= 6 EnMin= -4864.50842829565     IErMin= 6 ErrMin= 1.58D-03
 ErrMax= 1.58D-03 EMaxC= 1.00D-01 BMatC= 4.67D-02 BMatP= 9.77D-02
 IDIUse=3 WtCom= 9.84D-01 WtEn= 1.58D-02
 Coeff-Com: -0.328D-01 0.664D-01 0.130D+00 0.171D+00 0.333D+00 0.332D+00
 Coeff-En:   0.000D+00 0.000D+00 0.000D+00 0.000D+00 0.395D+00 0.605D+00
 Coeff:     -0.322D-01 0.653D-01 0.128D+00 0.168D+00 0.334D+00 0.337D+00
 Gap=     0.140 Goal=   None    Shift=    0.000
 Gap=     0.000 Goal=   None    Shift=    0.000
 RMSDP=3.18D-04 MaxDP=2.55D-02 DE=-1.49D-02 OVMax= 7.00D-01

 Cycle   7  Pass 0  IDiag  1:
 RMSU=  5.61D-05    CP:  9.48D-01  2.35D+00  6.53D-01  3.28D-01  7.26D-01
                    CP:  4.89D-01
 E= -4864.52033613941     Delta-E=       -0.011907843760 Rises=F Damp=F
 DIIS: error= 1.15D-03 at cycle   7 NSaved=   7.
 NSaved= 7 IEnMin= 7 EnMin= -4864.52033613941     IErMin= 7 ErrMin= 1.15D-03
 ErrMax= 1.15D-03 EMaxC= 1.00D-01 BMatC= 1.63D-02 BMatP= 4.67D-02
 IDIUse=3 WtCom= 9.88D-01 WtEn= 1.15D-02
 Coeff-Com:  0.320D-02-0.612D-02 0.203D-01 0.427D-01 0.150D+00 0.356D+00
 Coeff-Com:  0.435D+00
 Coeff-En:   0.000D+00 0.000D+00 0.000D+00 0.000D+00 0.000D+00 0.327D+00
 Coeff-En:   0.673D+00
 Coeff:      0.316D-02-0.605D-02 0.201D-01 0.422D-01 0.148D+00 0.355D+00
 Coeff:      0.437D+00
 Gap=     0.138 Goal=   None    Shift=    0.000
 Gap=     0.008 Goal=   None    Shift=    0.000
 RMSDP=1.35D-04 MaxDP=1.24D-02 DE=-1.19D-02 OVMax= 2.96D-01

 Cycle   8  Pass 0  IDiag  1:
 RMSU=  2.25D-05    CP:  9.48D-01  2.41D+00  5.82D-01  4.98D-01  4.81D-01
                    CP:  8.84D-01  8.49D-01
 E= -4864.52630943879     Delta-E=       -0.005973299372 Rises=F Damp=F
 DIIS: error= 3.39D-04 at cycle   8 NSaved=   8.
 NSaved= 8 IEnMin= 8 EnMin= -4864.52630943879     IErMin= 8 ErrMin= 3.39D-04
 ErrMax= 3.39D-04 EMaxC= 1.00D-01 BMatC= 1.86D-03 BMatP= 1.63D-02
 IDIUse=3 WtCom= 9.97D-01 WtEn= 3.39D-03
 Coeff-Com:  0.443D-02-0.888D-02-0.507D-02-0.190D-02 0.396D-01 0.205D+00
 Coeff-Com:  0.335D+00 0.431D+00
 Coeff-En:   0.000D+00 0.000D+00 0.000D+00 0.000D+00 0.000D+00 0.000D+00
 Coeff-En:   0.329D-01 0.967D+00
 Coeff:      0.442D-02-0.885D-02-0.505D-02-0.190D-02 0.395D-01 0.205D+00
 Coeff:      0.334D+00 0.433D+00
 Gap=     0.133 Goal=   None    Shift=    0.000
 Gap=     0.013 Goal=   None    Shift=    0.000
 RMSDP=1.74D-05 MaxDP=1.48D-03 DE=-5.97D-03 OVMax= 1.66D-02

 Cycle   9  Pass 0  IDiag  1:
 RMSU=  7.06D-06    CP:  9.48D-01  2.40D+00  5.83D-01  4.98D-01  4.75D-01
                    CP:  8.81D-01  8.91D-01  7.62D-01
 E= -4864.52677633600     Delta-E=       -0.000466897214 Rises=F Damp=F
 DIIS: error= 9.65D-05 at cycle   9 NSaved=   9.
 NSaved= 9 IEnMin= 9 EnMin= -4864.52677633600     IErMin= 9 ErrMin= 9.65D-05
 ErrMax= 9.65D-05 EMaxC= 1.00D-01 BMatC= 2.02D-04 BMatP= 1.86D-03
 IDIUse=1 WtCom= 1.00D+00 WtEn= 0.00D+00
 Coeff-Com:  0.171D-02-0.341D-02-0.341D-02-0.524D-02 0.917D-02 0.836D-01
 Coeff-Com:  0.167D+00 0.282D+00 0.468D+00
 Coeff:      0.171D-02-0.341D-02-0.341D-02-0.524D-02 0.917D-02 0.836D-01
 Coeff:      0.167D+00 0.282D+00 0.468D+00
 Gap=     0.133 Goal=   None    Shift=    0.000
 Gap=     0.014 Goal=   None    Shift=    0.000
 RMSDP=1.08D-05 MaxDP=1.09D-03 DE=-4.67D-04 OVMax= 1.73D-02

 Cycle  10  Pass 0  IDiag  1:
 RMSU=  4.33D-06    CP:  9.48D-01  2.40D+00  5.84D-01  4.97D-01  4.77D-01
                    CP:  8.93D-01  8.70D-01  8.29D-01  6.19D-01
 E= -4864.52679730425     Delta-E=       -0.000020968255 Rises=F Damp=F
 DIIS: error= 7.80D-05 at cycle  10 NSaved=  10.
 NSaved=10 IEnMin=10 EnMin= -4864.52679730425     IErMin=10 ErrMin= 7.80D-05
 ErrMax= 7.80D-05 EMaxC= 1.00D-01 BMatC= 1.23D-04 BMatP= 2.02D-04
 IDIUse=1 WtCom= 1.00D+00 WtEn= 0.00D+00
 Coeff-Com: -0.734D-04 0.188D-03-0.129D-02-0.432D-02-0.502D-02 0.106D-01
 Coeff-Com:  0.637D-01 0.118D+00 0.407D+00 0.411D+00
 Coeff:     -0.734D-04 0.188D-03-0.129D-02-0.432D-02-0.502D-02 0.106D-01
 Coeff:      0.637D-01 0.118D+00 0.407D+00 0.411D+00
 Gap=     0.133 Goal=   None    Shift=    0.000
 Gap=     0.015 Goal=   None    Shift=    0.000
 RMSDP=5.52D-06 MaxDP=7.62D-04 DE=-2.10D-05 OVMax= 8.30D-03

 Initial convergence to 1.0D-05 achieved.  Increase integral accuracy.
 Cycle  11  Pass 1  IDiag  1:
 E= -4864.52644572519     Delta-E=        0.000351579059 Rises=F Damp=F
 DIIS: error= 4.21D-04 at cycle   1 NSaved=   1.
 NSaved= 1 IEnMin= 1 EnMin= -4864.52644572519     IErMin= 1 ErrMin= 4.21D-04
 ErrMax= 4.21D-04 EMaxC= 1.00D-01 BMatC= 7.85D-04 BMatP= 7.85D-04
 IDIUse=3 WtCom= 9.96D-01 WtEn= 4.21D-03
 Coeff-Com:  0.100D+01
 Coeff-En:   0.100D+01
 Coeff:      0.100D+01
 Gap=     0.135 Goal=   None    Shift=    0.000
 Gap=     0.015 Goal=   None    Shift=    0.000
[...]
   160  H    0.000000   0.000000   0.000000   0.000000   0.000000   0.000000
   161  C    0.000000   0.000000   0.000000   0.000000   0.000000   0.000000
   162  C    0.000000   0.000000   0.000000   0.000000   0.000003   0.000000
   163  H    0.000000   0.000000   0.000000   0.000000   0.000000   0.000000
   164  C    0.000000   0.000000   0.000000   0.000000   0.000000   0.000000
   165  C    0.000000   0.000001   0.000000   0.000000   0.000000   0.000000
   166  H    0.000000  -0.000003   0.000001   0.000000   0.000000   0.000000
   167  H    0.000000   0.000000   0.000000   0.000000   0.000000   0.000000
   168  H    0.000000   0.000000   0.000000   0.000000   0.000000   0.000000
   169  H    0.000000   0.000000   0.000000   0.000000   0.000000   0.000000
   170  H    0.000000   0.000000   0.000000   0.000000   0.000000   0.000000
   171  H    0.000000   0.000000   0.000000   0.000000   0.000000   0.000000
   172  H    0.000000   0.000000   0.000000   0.000000  -0.000006   0.000001
   173  H    0.000000   0.000000   0.000000   0.000000   0.000000   0.000000
   174  H    0.000000   0.000000   0.000000   0.000000   0.000000   0.000000
   175  H    0.000000   0.000000   0.000000   0.000000   0.000000   0.000000
   176  H    0.000000   0.000000   0.000000   0.000000   0.000000   0.000000
   177  H    0.000000   0.000000   0.000000   0.000000   0.000000   0.000000
   178  C    0.000000   0.000000   0.000000   0.000000   0.000075   0.000078
   179  C    0.000000   0.000000   0.000000   0.000000   0.000000   0.000000
   180  C    0.000000   0.000064   0.000010   0.000072   0.000000   0.000000
   181  C    0.000006   0.000000   0.000000   0.000000   0.000000   0.000000
   182  H    0.000000   0.000000   0.000000   0.000000   0.000000   0.000000
   183  H    0.000000   0.000000   0.000000   0.000000   0.000000   0.000000
   184  H    0.000000   0.000000   0.000000   0.000000   0.000000   0.000000
   185  H    0.000004   0.000000   0.000000   0.000000   0.000000   0.000000
   186  H   -0.000005   0.000000   0.000000   0.000000   0.000000   0.000000
   187  H   -0.000017   0.000000   0.000000   0.000000   0.000000   0.000000
   188  H    0.000000  -0.000112   0.000004  -0.000005   0.000000   0.000000
   189  H    0.000000   0.000004  -0.000034  -0.000003   0.000000   0.000000
   190  H    0.000000  -0.000005  -0.000003  -0.000043   0.000000   0.000000
   191  H    0.000000   0.000000   0.000000   0.000000  -0.000112  -0.000005
   192  H    0.000000   0.000000   0.000000   0.000000  -0.000005  -0.000058
   193  H    0.000000   0.000000   0.000000   0.000000   0.000003  -0.000004
            193
     1  C    0.000000
     2  C    0.000000
     3  C    0.000000
     4  C    0.000000
     5  C    0.000000
     6  C    0.000000
     7  C    0.000000
     8  C    0.000000
     9  C    0.000000
    10  C    0.000000
    11  C    0.000000
    12  C    0.000000
    13  C    0.000000
    14  C    0.000000
    15  C    0.000000
    16  C    0.000000
    17  C   -0.000001
    18  C    0.000000
    19  C    0.000000
    20  C    0.000000
    21  C    0.000000
    22  C    0.000000
    23  C    0.000000
    24  C    0.000002
    25  C   -0.000001
    26  N    0.000000
    27  N    0.000000
    28  N    0.000000
    29  N   -0.000004
    30  C    0.000010
    31  C    0.000000
    32  C    0.000002
    33  C    0.000000
    34  C    0.000000
    35  C    0.000000
    36  C    0.000000
    37  C    0.000000
    38  C    0.000000
    39  C    0.000000
    40  C    0.000000
    41  C    0.000001
    42  C   -0.000006
    43  C    0.000000
    44  C    0.000000
    45  C    0.000000
    46  C    0.000000
    47  C    0.000000
    48  C    0.000000
    49  C    0.000000
    50  C    0.000000
    51  C    0.000000
    52  C    0.000000
    53  C    0.000000
    54  C    0.000000
    55  C    0.000000
    56  C    0.000000
    57  C    0.000000
    58  C    0.000000
    59  C    0.000000
    60  C    0.000000
    61  C    0.000000
    62  C    0.000000
    63  C    0.000000
    64  C    0.000000
    65  C    0.000000
    66  C    0.000000
    67  C    0.000000
    68  C    0.000000
    69  C    0.000000
    70  C    0.000000
    71  C    0.000000
    72  C    0.000002
    73  C    0.000017
    74  C   -0.000018
    75  C   -0.000001
    76  C    0.000000
    77  C    0.000000
    78  H    0.000000
    79  H    0.000000
    80  H    0.000000
    81  H    0.000000
    82  H    0.000000
    83  H    0.000000
    84  H    0.000000
    85  H    0.000000
    86  H    0.000000
    87  H    0.000000
    88  H    0.000000
    89  H    0.000000
    90  O    0.000000
    91  C    0.000000
    92  O    0.000000
    93  C    0.000000
    94  O    0.000000
    95  O    0.000000
    96  C    0.000000
    97  C    0.000000
    98  H    0.000000
    99  H   -0.000001
   100  H    0.000000
   101  H    0.000000
   102  H    0.000000
   103  H    0.000000
   104  H    0.000000
   105  H    0.000000
   106  H    0.000000
   107  H    0.000000
   108  H    0.000000
   109  H    0.000000
   110  H    0.000000
   111  H    0.000000
   112  H    0.000000
   113  H    0.000000
   114  H    0.000000
   115  H    0.000000
   116  H    0.000000
   117  H    0.000000
   118  H    0.000000
   119  H    0.000000
   120  H    0.000000
   121  H    0.000000
   122  H    0.000000
   123  H    0.000000
   124  H    0.000000
   125  H    0.000000
   126  O    0.000000
   127  H    0.000000
   128  O    0.000000
   129  O   -0.000005
   130  H    0.000000
   131  H    0.000000
   132  O    0.000000
   133  H    0.000000
   134  O    0.000000
   135  H    0.000000
   136  O    0.000000
   137  O    0.000000
   138  H    0.000000
   139  H    0.000000
   140  O    0.000000
   141  O    0.000000
   142  C    0.000000
   143  O    0.000000
   144  C    0.000000
   145  O    0.000000
   146  C    0.000000
   147  O    0.000000
   148  C    0.000000
   149  H    0.000000
   150  H    0.000000
   151  H    0.000000
   152  H    0.000000
   153  H    0.000000
   154  H    0.000000
   155  H    0.000000
   156  H    0.000000
   157  H    0.000000
   158  H    0.000000
   159  H    0.000000
   160  H    0.000000
   161  C    0.000000
   162  C    0.000000
   163  H    0.000000
   164  C    0.000000
   165  C    0.000000
   166  H    0.000000
   167  H    0.000000
   168  H    0.000000
   169  H    0.000000
   170  H    0.000000
   171  H    0.000000
   172  H    0.000001
   173  H    0.000000
   174  H    0.000000
   175  H    0.000000
   176  H    0.000000
   177  H    0.000000
   178  C    0.000023
   179  C    0.000000
   180  C    0.000000
   181  C    0.000000
   182  H    0.000000
   183  H    0.000000
   184  H    0.000000
   185  H    0.000000
   186  H    0.000000
   187  H    0.000000
   188  H    0.000000
   189  H    0.000000
   190  H    0.000000
   191  H    0.000003
   192  H   -0.000004
   193  H   -0.000034
 Mulliken atomic spin densities:
              1
     1  C   -0.005355
     2  C    0.011356
     3  C    0.021859
     4  C    0.034663
     5  C    0.004547
     6  C    0.008589
     7  C    0.031236
     8  C    0.036597
     9  C    0.004974
    10  C    0.003156
    11  C    0.016528
    12  C    0.023130
    13  C   -0.001527
    14  C   -0.007136
    15  C    0.026462
    16  C    0.011365
    17  C    0.006767
    18  C   -0.000846
    19  C    0.016666
    20  C    0.016383
    21  C   -0.000503
    22  C   -0.004045
    23  C    0.027496
    24  C    0.014341
    25  C    0.006737
    26  N    0.079398
    27  N    0.093999
    28  N    0.070100
    29  N    0.093529
    30  C   -0.002796
    31  C   -0.001885
    32  C   -0.001456
    33  C   -0.000908
    34  C   -0.003327
    35  C   -0.001755
    36  C    0.001294
    37  C   -0.002354
    38  C    0.027921
    39  C   -0.006965
    40  C    0.032734
    41  C   -0.008687
    42  C    0.021633
    43  C    0.021362
    44  C   -0.005877
    45  C    0.023089
    46  C   -0.007396
    47  C    0.016701
    48  C    0.008454
    49  C   -0.003809
    50  C    0.010401
    51  C   -0.001505
    52  C    0.010244
    53  C    0.005933
    54  C   -0.001339
    55  C    0.004223
    56  C   -0.000670
    57  C    0.005362
    58  C    0.006640
    59  C   -0.000299
    60  C    0.006314
    61  C   -0.002458
    62  C    0.005944
    63  C    0.023008
    64  C   -0.007066
    65  C    0.025098
    66  C   -0.005457
    67  C    0.016039
    68  C    0.019390
    69  C   -0.008557
    70  C    0.028847
    71  C   -0.005986
    72  C    0.025532
    73  C    0.012214
    74  C   -0.001807
    75  C    0.012156
    76  C   -0.004596
    77  C    0.010007
    78  H   -0.000338
    79  H   -0.000133
    80  H   -0.000801
    81  H   -0.000158
    82  H    0.000160
    83  H   -0.001204
    84  H   -0.000060
    85  H   -0.001334
    86  H   -0.000137
    87  H   -0.001143
    88  H   -0.000408
    89  H   -0.000205
    90  O    0.013192
    91  C   -0.001076
    92  O    0.011867
    93  C   -0.000958
    94  O    0.015572
    95  O    0.010083
    96  C   -0.000824
    97  C   -0.001262
    98  H    0.000317
    99  H   -0.001016
   100  H   -0.000939
   101  H    0.000195
   102  H   -0.001276
   103  H    0.000314
   104  H   -0.000789
   105  H   -0.001134
   106  H    0.000188
   107  H    0.000300
   108  H   -0.000946
   109  H    0.000253
   110  H   -0.001034
   111  H    0.000124
   112  H   -0.000718
   113  H    0.000846
   114  H    0.000911
   115  H   -0.000016
   116  H    0.000750
   117  H    0.000764
   118  H   -0.000017
   119  H   -0.000024
   120  H    0.001147
   121  H    0.001163
   122  H    0.000976
   123  H    0.000999
   124  H   -0.000022
   125  H    0.000181
   126  O    0.001074
   127  H    0.000133
   128  O    0.000115
   129  O    0.000093
   130  H    0.000196
   131  H    0.000235
   132  O    0.001795
   133  H    0.000201
   134  O    0.001090
   135  H    0.000235
   136  O    0.000652
   137  O    0.000130
   138  H    0.000168
   139  H    0.000197
   140  O    0.001629
   141  O    0.002802
   142  C   -0.000223
   143  O    0.004467
   144  C   -0.000375
   145  O    0.001872
   146  C   -0.000153
   147  O    0.005143
   148  C   -0.000434
   149  H   -0.000003
   150  H    0.000170
   151  H    0.000201
   152  H   -0.000010
   153  H    0.000414
   154  H    0.000377
   155  H   -0.000002
   156  H    0.000146
   157  H    0.000132
   158  H    0.000326
   159  H   -0.000007
   160  H    0.000357
   161  C   -0.000131
   162  C   -0.000118
   163  H    0.000194
   164  C   -0.000124
   165  C   -0.000092
   166  H    0.000009
   167  H    0.000092
   168  H    0.000070
   169  H   -0.000008
   170  H    0.000168
   171  H    0.000082
   172  H    0.000062
   173  H    0.000135
   174  H    0.000044
   175  H    0.000156
   176  H    0.000071
   177  H   -0.000006
   178  C    0.000180
   179  C   -0.000091
   180  C    0.000159
   181  C    0.000075
   182  H    0.000001
   183  H    0.000084
   184  H    0.000009
   185  H    0.000000
   186  H   -0.000081
   187  H   -0.000006
   188  H   -0.000097
   189  H   -0.000006
   190  H   -0.000119
   191  H   -0.000084
   192  H   -0.000137
   193  H   -0.000012
 Sum of Mulliken atomic spin densities =   1.00000
 Electronic spatial extent (au):  <R**2>=         129983.4453
 Charge=              1.0000 electrons
 Dipole moment (field-independent basis, Debye):
    X=              1.0148    Y=              1.9053    Z=              1.8651  Tot=              2.8528
 Quadrupole moment (field-independent basis, Debye-Ang):
   XX=           -407.8713   YY=           -466.8156   ZZ=           -529.5034
   XY=            -16.9673   XZ=             12.5751   YZ=             -3.2236
 Traceless Quadrupole moment (field-independent basis, Debye-Ang):
   XX=             60.1922   YY=              1.2478   ZZ=            -61.4400
   XY=            -16.9673   XZ=             12.5751   YZ=             -3.2236
 Octapole moment (field-independent basis, Debye-Ang**2):
  XXX=              9.7956  YYY=             36.3818  ZZZ=             59.4045  XYY=            233.0710
  XXY=            203.5089  XXZ=             58.1246  XZZ=             -7.8408  YZZ=             74.8761
  YYZ=             -1.1764  XYZ=            -20.0805
 Hexadecapole moment (field-independent basis, Debye-Ang**3):
 XXXX=         -67374.0361 YYYY=         -55670.4961 ZZZZ=         -23740.8029 XXXY=            424.4564
 XXXZ=            336.6847 YYYX=          -1441.3279 YYYZ=           -658.7917 ZZZX=            327.2815
 ZZZY=            295.0251 XXYY=         -20260.6858 XXZZ=         -13727.7308 YYZZ=         -12367.0190
 XXYZ=           -741.4227 YYXZ=           -359.2961 ZZXY=           -129.5353
 N-N= 2.295982799498D+04 E-N=-8.576567032506D+04  KE= 7.249032695417D+03
 Leave Link  601 at Tue Feb  3 18:48:36 2015, MaxMem= 2147483648 cpu:     142.8
 (Enter /opt/g09/l9999.exe)
 1\1\GINC-CHPC-SCANDIUM\SP\UB3LYP\CC-pVDZ\C89H84N4O16(1+,2)\JARVIST\03-
 Feb-2015\0\\#p sp B3LYP/cc-pVDZ\\Auto Spiro; and yes I said yes I will
  Yes.\\1,2\C,0,-0.013749,0.092784,-0.242204\C,0,-0.729903,-0.83378,-1.
 228218\C,0,-0.455133,-0.457645,-2.556561\C,0,0.45857,0.688742,-2.53911
 2\C,0,0.721541,1.036253,-1.200069\C,0,-0.979303,0.767138,0.739183\C,0,
 -0.618531,0.474165,2.069553\C,0,0.580776,-0.367292,2.058321\C,0,0.9382
 02,-0.624252,0.720651\C,0,-2.11633,1.500992,0.444125\C,0,-2.928174,1.9
 68288,1.496025\C,0,-2.553889,1.697712,2.824864\C,0,-1.413054,0.951751,
 3.11396\C,0,1.08542,1.399377,-3.566706\C,0,1.975585,2.42304,-3.249607\
 C,0,2.269689,2.742234,-1.909338\C,0,1.613541,2.046447,-0.877881\C,0,-1
 .579287,-1.888601,-0.937291\C,0,-2.167243,-2.609351,-1.989883\C,0,-1.8
 8055,-2.247368,-3.319079\C,0,-1.038919,-1.173548,-3.605629\C,0,1.35196
 3,-0.912715,3.087314\C,0,2.451018,-1.710916,2.774919\C,0,2.806968,-1.9
 66459,1.437851\C,0,2.036906,-1.403541,0.402427\N,0,-4.133822,2.666733,
 1.224578\N,0,3.217008,3.749306,-1.596139\N,0,-3.026817,-3.70767,-1.701
 827\N,0,3.937698,-2.769631,1.138521\C,0,5.088241,-2.679498,1.967406\C,
 0,-2.655975,-4.575579,-0.634088\C,0,3.929205,-3.682801,0.047727\C,0,-4
 .311792,-3.82553,-2.285468\C,0,-4.230202,3.607003,0.164313\C,0,-5.2628
 83,2.446469,2.060825\C,0,4.45531,3.848501,-2.274322\C,0,2.932246,4.651
 387,-0.531399\C,0,5.120686,5.076599,-2.380501\C,0,6.362238,5.180843,-3
 .013596\C,0,6.960918,4.050802,-3.575584\C,0,6.302437,2.817702,-3.48022
 6\C,0,5.078617,2.714825,-2.833769\C,0,-5.436614,3.790716,-0.521354\C,0
 ,-5.555474,4.732293,-1.547838\C,0,-4.45052,5.500496,-1.92147\C,0,-3.23
 745,5.321249,-1.241963\C,0,-3.130248,4.401621,-0.209588\C,0,-5.792493,
 3.507298,2.843817\C,0,-6.888804,3.30845,3.678476\C,0,-7.463927,2.03315
 9,3.78093\C,0,-6.955234,0.969494,3.038771\C,0,-5.869227,1.184735,2.178
 784\C,0,3.466558,4.45312,0.753923\C,0,3.194659,5.349834,1.799749\C,0,2
 .363601,6.44478,1.549612\C,0,1.807444,6.661673,0.283579\C,0,2.097771,5
 .76961,-0.749157\C,0,-1.584181,-5.469986,-0.768295\C,0,-1.172102,-6.29
 2326,0.288053\C,0,-1.852543,-6.22859,1.503328\C,0,-2.92704,-5.342811,1
 .672508\C,0,-3.308812,-4.508293,0.624636\C,0,-4.96195,-2.736392,-2.883
 84\C,0,-6.224136,-2.874128,-3.467759\C,0,-6.87965,-4.107943,-3.449675\
 C,0,-6.247441,-5.198284,-2.839702\C,0,-4.986662,-5.062486,-2.274775\C,
 0,2.742516,-4.321928,-0.359466\C,0,2.736732,-5.204066,-1.429603\C,0,3.
 92499,-5.504817,-2.110894\C,0,5.115089,-4.897909,-1.702963\C,0,5.10832
 6,-3.987582,-0.641251\C,0,5.800142,-1.478065,2.115727\C,0,6.912249,-1.
 378981,2.962583\C,0,7.342186,-2.505705,3.660477\C,0,6.660163,-3.724318
 ,3.528492\C,0,5.537858,-3.805212,2.708219\H,0,2.305145,-1.582422,-0.63
 3721\H,0,-1.80423,-2.152993,0.09055\H,0,-2.326757,-2.816316,-4.128923\
 H,0,-0.832882,-0.912424,-4.640764\H,0,0.886317,1.163217,-4.609322\H,0,
 2.462754,2.983402,-4.040944\H,0,1.096564,-0.735058,4.129339\H,0,3.0444
 79,-2.149671,3.570518\H,0,-1.154282,0.745533,4.149821\H,0,-3.176284,2.
 069111,3.632402\H,0,1.844111,2.273318,0.157103\H,0,-2.396066,1.694338,
 -0.586681\O,0,3.813287,-6.397313,-3.147115\C,0,4.98262,-6.708906,-3.87
 9863\O,0,-8.118016,-4.352159,-3.988955\C,0,-8.788544,-3.27492,-4.61483
 9\O,0,8.169337,4.039131,-4.227187\O,0,-4.447061,6.443805,-2.916926\C,0
 ,-5.645767,6.64224,-3.642884\C,0,8.860136,5.266655,-4.357215\H,0,6.776
 675,1.940769,-3.911037\H,0,4.594715,1.746771,-2.762149\H,0,-6.304452,3
 .200686,-0.244478\H,0,6.839668,6.153035,-3.068392\H,0,4.666654,5.96778
 4,-1.9612\H,0,-2.385829,5.928324,-1.533547\H,0,-2.186954,4.294279,0.31
 4724\H,0,6.041134,-3.519376,-0.34289\H,0,6.05302,-5.107713,-2.205236\H
 ,0,1.80814,-5.666863,-1.749476\H,0,1.813084,-4.11849,0.160709\H,0,-6.6
 8359,-2.003543,-3.922975\H,0,-4.48016,-1.765403,-2.901334\H,0,-6.76034
 5,-6.15535,-2.82442\H,0,-4.518865,-5.923194,-1.808434\H,0,-8.21714,-2.
 879329,-5.466295\H,0,-8.989321,-2.455201,-3.910659\H,0,-9.737409,-3.67
 7573,-4.975774\H,0,-6.463981,6.982356,-2.992692\H,0,-5.961557,5.72745,
 -4.163341\H,0,-5.428044,7.417714,-4.380314\H,0,9.779669,5.040657,-4.90
 1554\H,0,9.11695,5.69592,-3.37837\H,0,8.27651,6.004411,-4.925689\H,0,5
 .748359,-7.178543,-3.246212\H,0,5.414193,-5.817613,-4.356393\H,0,4.675
 838,-7.416113,-4.653565\H,0,-3.41413,-5.311899,2.638427\O,0,-4.285999,
 -3.568209,0.726951\H,0,-0.328883,-6.950223,0.121926\O,0,-0.835506,-5.5
 1776,-1.922128\O,0,5.389766,-0.320013,1.497937\H,0,7.407395,-0.41935,3
 .037063\H,0,7.017594,-4.572282,4.098456\O,0,4.792075,-4.933066,2.56153
 1\H,0,3.615701,5.186603,2.780911\O,0,4.233489,3.340344,0.906555\H,0,1.
 171105,7.525835,0.144322\O,0,1.622969,5.901276,-2.017057\O,0,-5.380352
 ,0.078853,1.525373\H,0,-7.368589,-0.029526,3.089089\H,0,-7.303978,4.10
 5439,4.281742\O,0,-5.144803,4.696912,2.721715\O,0,-1.550065,-6.986859,
 2.596878\C,0,-0.444643,-7.872348,2.509569\O,0,-8.522972,1.942174,4.638
 613\C,0,-9.14581,0.677621,4.797857\O,0,2.029074,7.375866,2.491703\C,0,
 2.525849,7.214332,3.809541\O,0,8.419258,-2.531975,4.500458\C,0,9.15664
 4,-1.333211,4.676211\H,0,-0.371897,-8.356062,3.485584\H,0,0.487615,-7.
 332474,2.299154\H,0,-0.600005,-8.63679,1.736771\H,0,9.961362,-1.575972
 ,5.372859\H,0,8.534742,-0.535559,5.103648\H,0,9.588926,-0.982901,3.729
 666\H,0,2.127109,8.05289,4.383807\H,0,3.623273,7.24802,3.836215\H,0,2.
 182961,6.272687,4.258189\H,0,-9.573333,0.316417,3.853174\H,0,-9.947894
 ,0.828025,5.522971\H,0,-8.442761,-0.072356,5.183509\C,0,5.2006,-6.1082
 96,3.241204\C,0,4.706442,3.003804,2.206247\H,0,-6.511138,4.843884,-2.0
 48003\C,0,-5.633141,5.812741,3.448078\C,0,-4.8881,-3.353769,1.998919\H
 ,0,-5.519386,-2.472492,1.885752\H,0,-4.130778,-3.150475,2.765606\H,0,-
 5.492344,-4.218648,2.302092\H,0,4.477859,-6.877229,2.962729\H,0,5.1853
 73,-5.97078,4.330542\H,0,6.205161,-6.424412,2.931641\H,0,5.177147,2.02
 5207,2.107347\H,0,3.879089,2.930849,2.923143\H,0,5.437383,3.740134,2.5
 66461\H,0,-5.588789,5.639291,4.531387\H,0,-6.664843,6.057209,3.163934\
 H,0,-4.977923,6.645343,3.186565\C,0,5.573529,-0.250001,0.078098\C,0,0.
 761498,6.991053,-2.304474\C,0,-5.52229,0.049995,0.099839\C,0,-1.456635
 ,-6.134875,-3.051346\H,0,0.491984,6.886962,-3.356796\H,0,1.264081,7.95
 4945,-2.149363\H,0,-0.148185,6.958295,-1.691122\H,0,-0.720973,-6.09492
 1,-3.857424\H,0,-2.363664,-5.603864,-3.35535\H,0,-1.702742,-7.183446,-
 2.834811\H,0,-5.114041,-0.910193,-0.220609\H,0,-6.58216,0.111542,-0.18
 1521\H,0,-4.969909,0.863133,-0.378722\H,0,5.21206,0.735315,-0.221525\H
 ,0,5.002861,-1.025965,-0.440063\H,0,6.637512,-0.345307,-0.176153\\Vers
 ion=EM64L-G09RevA.02\State=2-A\HF=-4864.5266328\S2=0.754598\S2-1=0.\S2
 A=0.75002\RMSD=3.514e-09\Dipole=0.3992558,0.7496131,0.7337901\Quadrupo
 le=44.7513971,0.9277416,-45.6791387,-12.6147511,9.3493031,-2.3966523\P
 G=C01 [X(C89H84N4O16)]\\@


 IF I HAVE SEEN FARTHER, IT IS BY STANDING ON THE
 SHOULDERS OF GIANTS. -- SIR ISAAC NEWTON
 Job cpu time:  1 days 12 hours 27 minutes 35.0 seconds.
 File lengths (MBytes):  RWF=   3521 Int=      0 D2E=      0 Chk=    175 Scr=      1
 Normal termination of Gaussian 09 at Tue Feb  3 18:48:37 2015.
