 Entering Gaussian System, Link 0=g09
 Input=HF_metameta.com
 Output=HF_metameta.log
 Initial command:
 /opt/g09/l1.exe /home/jarvist/2014-07_SPIRO/b3lyp-631gs_opt/Gau-41861.inp -scrdir=/home/jarvist/2014-07_SPIRO/b3lyp-631gs_opt/
 Default is to use a total of   8 processors:
                                8 via shared-memory
                                1 via Linda
 Entering Link 1 = /opt/g09/l1.exe PID=     41863.
  
 Copyright (c) 1988,1990,1992,1993,1995,1998,2003,2009, Gaussian, Inc.
                  All Rights Reserved.
  
 This is part of the Gaussian(R) 09 program.  It is based on
 the Gaussian(R) 03 system (copyright 2003, Gaussian, Inc.),
 the Gaussian(R) 98 system (copyright 1998, Gaussian, Inc.),
 the Gaussian(R) 94 system (copyright 1995, Gaussian, Inc.),
 the Gaussian 92(TM) system (copyright 1992, Gaussian, Inc.),
 the Gaussian 90(TM) system (copyright 1990, Gaussian, Inc.),
 the Gaussian 88(TM) system (copyright 1988, Gaussian, Inc.),
 the Gaussian 86(TM) system (copyright 1986, Carnegie Mellon
 University), and the Gaussian 82(TM) system (copyright 1983,
 Carnegie Mellon University). Gaussian is a federally registered
 trademark of Gaussian, Inc.
  
 This software contains proprietary and confidential information,
 including trade secrets, belonging to Gaussian, Inc.
  
 This software is provided under written license and may be
 used, copied, transmitted, or stored only in accord with that
 written license.
  
 The following legend is applicable only to US Government
 contracts under FAR:
  
                    RESTRICTED RIGHTS LEGEND
  
 Use, reproduction and disclosure by the US Government is
 subject to restrictions as set forth in subparagraphs (a)
 and (c) of the Commercial Computer Software - Restricted
 Rights clause in FAR 52.227-19.
  
 Gaussian, Inc.
 340 Quinnipiac St., Bldg. 40, Wallingford CT 06492
  
  
 ---------------------------------------------------------------
 Warning -- This program may not be used in any manner that
 competes with the business of Gaussian, Inc. or will provide
 assistance to any competitor of Gaussian, Inc.  The licensee
 of this program is prohibited from giving any competitor of
 Gaussian, Inc. access to this program.  By using this program,
 the user acknowledges that Gaussian, Inc. is engaged in the
 business of creating and licensing software in the field of
 computational chemistry and represents and warrants to the
 licensee that it is not a competitor of Gaussian, Inc. and that
 it will not use this program in any manner prohibited above.
 ---------------------------------------------------------------
  

 Cite this work as:
 Gaussian 09, Revision A.02,
 M. J. Frisch, G. W. Trucks, H. B. Schlegel, G. E. Scuseria, 
 M. A. Robb, J. R. Cheeseman, G. Scalmani, V. Barone, B. Mennucci, 
 G. A. Petersson, H. Nakatsuji, M. Caricato, X. Li, H. P. Hratchian, 
 A. F. Izmaylov, J. Bloino, G. Zheng, J. L. Sonnenberg, M. Hada, 
 M. Ehara, K. Toyota, R. Fukuda, J. Hasegawa, M. Ishida, T. Nakajima, 
 Y. Honda, O. Kitao, H. Nakai, T. Vreven, J. A. Montgomery, Jr., 
 J. E. Peralta, F. Ogliaro, M. Bearpark, J. J. Heyd, E. Brothers, 
 K. N. Kudin, V. N. Staroverov, R. Kobayashi, J. Normand, 
 K. Raghavachari, A. Rendell, J. C. Burant, S. S. Iyengar, J. Tomasi, 
 M. Cossi, N. Rega, J. M. Millam, M. Klene, J. E. Knox, J. B. Cross, 
 V. Bakken, C. Adamo, J. Jaramillo, R. Gomperts, R. E. Stratmann, 
 O. Yazyev, A. J. Austin, R. Cammi, C. Pomelli, J. W. Ochterski, 
 R. L. Martin, K. Morokuma, V. G. Zakrzewski, G. A. Voth, 
 P. Salvador, J. J. Dannenberg, S. Dapprich, A. D. Daniels, 
 O. Farkas, J. B. Foresman, J. V. Ortiz, J. Cioslowski, 
 and D. J. Fox, Gaussian, Inc., Wallingford CT, 2009.
 
 ******************************************
 Gaussian 09:  EM64L-G09RevA.02 11-Jun-2009
                19-Jan-2015 
 ******************************************
 %mem=16GB
 %nprocs=24
 Will use up to   24 processors via shared memory.
 Default route:  MaxDisk=100GB
 -------------------
 #p opt b3lyp/6-31g*
 -------------------
 1/14=-1,18=20,19=15,26=3,38=1/1,3;
 2/9=110,12=2,17=6,18=5,40=1/2;
 3/5=1,6=6,7=1,11=2,16=1,25=1,30=1,71=1,74=-5/1,2,3;
 4//1;
 5/5=2,38=5/2;
 6/7=2,8=2,9=2,10=2,28=1/1;
 7//1,2,3,16;
 1/14=-1,18=20,19=15/3(2);
 2/9=110/2;
 99//99;
 2/9=110/2;
 3/5=1,6=6,7=1,11=2,16=1,25=1,30=1,71=1,74=-5/1,2,3;
 4/5=5,16=3/1;
 5/5=2,38=5/2;
 7//1,2,3,16;
 1/14=-1,18=20,19=15/3(-5);
 2/9=110/2;
 6/7=2,8=2,9=2,10=2,19=2,28=1/1;
 99/9=1/99;
 Leave Link    1 at Mon Jan 19 21:42:41 2015, MaxMem= 2147483648 cpu:       2.2
 (Enter /opt/g09/l101.exe)
 ----------
 Auto Spiro
 ----------
 Symbolic Z-matrix:
 Charge =  0 Multiplicity = 1
 C                     12.60678   11.91055   12.64503 
 C                     11.32608   11.23609   12.2217 
 C                     11.54227   9.92233   11.869 
 C                     12.94484   9.62322   12.05256 
 C                     13.57896   10.76866   12.48468 
 C                     12.95739   13.11658   11.82253 
 C                     13.07269   14.25065   12.59434 
 C                     12.84448   13.88424   13.96131 
 C                     12.56839   12.53121   14.01739 
 C                     13.15652   13.15874   10.45738 
 C                     13.45057   14.39281   9.8573 
 C                     13.55058   15.5622   10.64857 
 C                     13.37446   15.49135   12.03305 
 C                     13.64714   8.43444   11.85167 
 C                     15.02751   8.42454   12.09519 
 C                     15.69234   9.60465   12.5064 
 C                     14.95105   10.78962   12.70395 
 C                     10.05638   11.80696   12.14852 
 C                     8.97384   11.03566   11.67084 
 C                     9.21652   9.67922   11.29142 
 C                     10.5056   9.11758   11.40504 
 C                     12.89021   14.66739   15.1045 
 C                     12.67978   14.04525   16.3406 
 C                     12.39623   12.64204   16.42333 
 C                     12.32146   11.89631   15.22907 
 N                     13.64357   14.46001   8.45667 
 N                     17.10603   9.59919   12.71148 
 N                     7.65239   11.62427   11.56416 
 N                     12.25644   12.00649   17.69498 
 C                     13.01713   12.4818   18.79863 
 C                     7.20109   12.61482   12.51034 
 C                     11.35591   10.88579   17.92483 
 C                     6.78973   11.22385   10.51237 
 C                     14.28065   13.39044   7.7666 
 C                     13.20836   15.59842   7.72722 
 C                     17.76842   8.45682   13.23865 
 C                     17.86742   10.76114   12.44697 
 C                     19.03842   8.07992   12.75681 
 C                     19.6778   6.9585    13.27636 
 C                     19.0728   6.22612   14.29435 
 C                     17.81309   6.61937   14.80149 
 C                     17.1717   7.7233    14.26213 
 C                     13.78877   12.99869   6.52108 
 C                     14.37628   11.95734   5.82579 
 C                     15.50291   11.30383   6.372 
 C                     16.00956   11.69817   7.61041 
 C                     15.39464   12.7315   8.3162 
 C                     14.02023   16.09881   6.71013 
 C                     13.64223   17.21723   5.99201 
 C                     12.4064   17.84039   6.27378 
 C                     11.57983   17.33574   7.27814 
 C                     11.98147   16.22298   8.01512 
 C                     18.84471   11.15578   13.36132 
 C                     19.60777   12.28295   13.12651 
 C                     19.40796   13.02174   11.93848 
 C                     18.43444   12.62522   11.02037 
 C                     17.6545   11.50309   11.27919 
 C                     7.48866   12.42289   13.81932 
 C                     7.01879   13.28953   14.82472 
 C                     6.26517   14.38712   14.49295 
 C                     5.97963   14.62698   13.16368 
 C                     6.42821   13.72914   12.16586 
 C                     7.29448   11.17745   9.22559 
 C                     6.4716    10.83747   8.15437 
 C                     5.11921   10.56647   8.36605 
 C                     4.6053    10.57619   9.66487 
 C                     5.44047   10.89594   10.74346 
 C                     10.10585   10.85703   17.32252 
 C                     9.20813   9.75964   17.58696 
 C                     9.58433   8.73739   18.40351 
 C                     10.8182   8.76188   19.01586 
 C                     11.70043   9.83433   18.79554 
 C                     14.3855   12.78482   18.65713 
 C                     15.11439   13.22021   19.76769 
 C                     14.4817   13.3848   21.00333 
 C                     13.11411   13.11489   21.13745 
 C                     12.39819   12.65365   20.02455 
 H                     12.12837   10.83167   15.25042 
 H                     9.91933   12.84192   12.42809 
 H                     8.40936   9.05448   10.9318 
 H                     10.6903   8.08609   11.12821 
 H                     13.15039   7.53686   11.51189 
 H                     15.58937   7.51291   11.9343 
 H                     13.10529   15.72874   15.04276 
 H                     12.73097   14.64893   17.23756 
 H                     13.47179   16.38127   12.63933 
 H                     13.791    16.51349   10.18883 
 H                     15.42983   11.70335   13.03633 
 H                     13.06182   12.25462   9.86754 
 H                     8.88404   7.92485   18.56302 
 H                     4.4826    10.30983   7.5297 
 H                     19.59153   5.36298   14.68436 
 H                     15.9888   10.49366   5.84856 
 O                     17.19614   5.95938   15.80624 
 H                     16.21296   8.0318    14.6619 
 H                     12.92125   13.49367   6.10006 
 O                     13.82993   11.60706   4.64027 
 H                     20.64349   6.65519   12.89197 
 H                     19.5183   8.64233   11.9649 
 H                     16.87867   11.20066   8.02027 
 H                     15.79762   13.03803   9.2726 
 H                     12.65424   9.82524   19.293 
 H                     11.07798   7.94527   19.66406 
 O                     7.97024   9.67381   17.06312 
 H                     9.84215   11.70094   16.69432 
 O                     6.99611   10.71044   6.92475 
 H                     8.33358   11.4311   9.06171 
 H                     3.56521   10.32942   9.83311 
 H                     5.03905   10.89255   11.7499 
 O                     6.081     13.91181   10.89172 
 H                     7.20769   13.1516   15.85939 
 H                     8.0445    11.55552   13.95937 
 H                     14.88198   12.65185   17.7057 
 H                     16.17197   13.42736   19.66966 
 O                     12.5112   13.30567   22.33486 
 H                     11.33786   12.44195   20.09266 
 O                     20.52138   12.6286   14.06021 
 H                     18.99628   10.59154   14.27578 
 H                     18.28746   13.18615   10.10818 
 H                     16.90658   11.18843   10.56378 
 H                     11.33159   15.83331   8.78913 
 H                     10.62989   17.81079   7.4851 
 O                     14.49292   17.67122   5.0455 
 H                     14.97291   15.62812   6.49525 
 H                     5.89974   15.04237   15.274 
 H                     12.08099   18.71157   5.72524 
 H                     19.9966   13.89884   11.71924 
 H                     15.04847   13.72598   21.8587 
 C                     8.05339   9.84436   6.74617 
 H                     7.70532   8.82259   7.01865 
 H                     8.91327   10.09752   7.40321 
 H                     8.38561   9.86042   5.69515 
 H                     5.39816   15.4987   12.91744 
 C                     4.75181   14.00372   10.58694 
 H                     4.24339   13.09431   10.96866 
 H                     4.64597   14.06432   9.49434 
 H                     4.28251   14.86239   11.09978 
 C                     7.50014   10.68977   16.34037 
 C                     11.16207   13.09934   22.54236 
 H                     10.90914   13.32285   23.59409 
 H                     10.90826   12.03812   22.32483 
 H                     10.57314   13.77013   21.87652 
 H                     6.53829   10.48709   15.83392 
 H                     8.29656   10.78987   15.62236 
 H                     7.45377   11.55481   17.02755 
 C                     17.71024   4.8405    16.40594 
 H                     17.01173   4.50381   17.194 
 H                     18.69348   5.0855    16.86227 
 H                     17.82118   4.04345   15.64064 
 C                     21.34747   13.71361   13.94747 
 H                     21.98571   13.77169   14.84887 
 H                     20.73132   14.63468   13.86905 
 H                     21.98345   13.58659   13.04645 
 C                     14.30144   10.59004   3.85451 
 C                     14.25343   18.77482   4.27242 
 H                     15.11504   18.92881   3.59612 
 H                     14.13564   19.66313   4.92938 
 H                     13.33454   18.6021   3.67436 
 H                     13.66255   10.50984   2.95501 
 H                     14.25846   9.63716   4.4243 
 H                     15.34415   10.82189   3.55263 
 
 NAtoms=    161 NQM=    161 NQMF=      0 NMic=      0 NMicF=      0 NTot=    161.
                    Isotopes and Nuclear Properties:
 (Nuclear quadrupole moments (NQMom) in fm**2, nuclear magnetic moments (NMagM)
  in nuclear magnetons)

  Atom         1           2           3           4           5           6           7           8           9          10
 IAtWgt=          12          12          12          12          12          12          12          12          12          12
 AtmWgt=  12.0000000  12.0000000  12.0000000  12.0000000  12.0000000  12.0000000  12.0000000  12.0000000  12.0000000  12.0000000
 NucSpn=           0           0           0           0           0           0           0           0           0           0
 AtZEff=   0.0000000   0.0000000   0.0000000   0.0000000   0.0000000   0.0000000   0.0000000   0.0000000   0.0000000   0.0000000
 NQMom=    0.0000000   0.0000000   0.0000000   0.0000000   0.0000000   0.0000000   0.0000000   0.0000000   0.0000000   0.0000000
 NMagM=    0.0000000   0.0000000   0.0000000   0.0000000   0.0000000   0.0000000   0.0000000   0.0000000   0.0000000   0.0000000

  Atom        11          12          13          14          15          16          17          18          19          20
 IAtWgt=          12          12          12          12          12          12          12          12          12          12
 AtmWgt=  12.0000000  12.0000000  12.0000000  12.0000000  12.0000000  12.0000000  12.0000000  12.0000000  12.0000000  12.0000000
 NucSpn=           0           0           0           0           0           0           0           0           0           0
 AtZEff=   0.0000000   0.0000000   0.0000000   0.0000000   0.0000000   0.0000000   0.0000000   0.0000000   0.0000000   0.0000000
 NQMom=    0.0000000   0.0000000   0.0000000   0.0000000   0.0000000   0.0000000   0.0000000   0.0000000   0.0000000   0.0000000
 NMagM=    0.0000000   0.0000000   0.0000000   0.0000000   0.0000000   0.0000000   0.0000000   0.0000000   0.0000000   0.0000000

  Atom        21          22          23          24          25          26          27          28          29          30
 IAtWgt=          12          12          12          12          12          14          14          14          14          12
 AtmWgt=  12.0000000  12.0000000  12.0000000  12.0000000  12.0000000  14.0030740  14.0030740  14.0030740  14.0030740  12.0000000
 NucSpn=           0           0           0           0           0           2           2           2           2           0
 AtZEff=   0.0000000   0.0000000   0.0000000   0.0000000   0.0000000   0.0000000   0.0000000   0.0000000   0.0000000   0.0000000
 NQMom=    0.0000000   0.0000000   0.0000000   0.0000000   0.0000000   2.0440000   2.0440000   2.0440000   2.0440000   0.0000000
 NMagM=    0.0000000   0.0000000   0.0000000   0.0000000   0.0000000   0.4037610   0.4037610   0.4037610   0.4037610   0.0000000

  Atom        31          32          33          34          35          36          37          38          39          40
 IAtWgt=          12          12          12          12          12          12          12          12          12          12
 AtmWgt=  12.0000000  12.0000000  12.0000000  12.0000000  12.0000000  12.0000000  12.0000000  12.0000000  12.0000000  12.0000000
 NucSpn=           0           0           0           0           0           0           0           0           0           0
 AtZEff=   0.0000000   0.0000000   0.0000000   0.0000000   0.0000000   0.0000000   0.0000000   0.0000000   0.0000000   0.0000000
 NQMom=    0.0000000   0.0000000   0.0000000   0.0000000   0.0000000   0.0000000   0.0000000   0.0000000   0.0000000   0.0000000
 NMagM=    0.0000000   0.0000000   0.0000000   0.0000000   0.0000000   0.0000000   0.0000000   0.0000000   0.0000000   0.0000000

  Atom        41          42          43          44          45          46          47          48          49          50
 IAtWgt=          12          12          12          12          12          12          12          12          12          12
 AtmWgt=  12.0000000  12.0000000  12.0000000  12.0000000  12.0000000  12.0000000  12.0000000  12.0000000  12.0000000  12.0000000
 NucSpn=           0           0           0           0           0           0           0           0           0           0
 AtZEff=   0.0000000   0.0000000   0.0000000   0.0000000   0.0000000   0.0000000   0.0000000   0.0000000   0.0000000   0.0000000
 NQMom=    0.0000000   0.0000000   0.0000000   0.0000000   0.0000000   0.0000000   0.0000000   0.0000000   0.0000000   0.0000000
 NMagM=    0.0000000   0.0000000   0.0000000   0.0000000   0.0000000   0.0000000   0.0000000   0.0000000   0.0000000   0.0000000

  Atom        51          52          53          54          55          56          57          58          59          60
 IAtWgt=          12          12          12          12          12          12          12          12          12          12
 AtmWgt=  12.0000000  12.0000000  12.0000000  12.0000000  12.0000000  12.0000000  12.0000000  12.0000000  12.0000000  12.0000000
 NucSpn=           0           0           0           0           0           0           0           0           0           0
 AtZEff=   0.0000000   0.0000000   0.0000000   0.0000000   0.0000000   0.0000000   0.0000000   0.0000000   0.0000000   0.0000000
 NQMom=    0.0000000   0.0000000   0.0000000   0.0000000   0.0000000   0.0000000   0.0000000   0.0000000   0.0000000   0.0000000
 NMagM=    0.0000000   0.0000000   0.0000000   0.0000000   0.0000000   0.0000000   0.0000000   0.0000000   0.0000000   0.0000000

  Atom        61          62          63          64          65          66          67          68          69          70
 IAtWgt=          12          12          12          12          12          12          12          12          12          12
 AtmWgt=  12.0000000  12.0000000  12.0000000  12.0000000  12.0000000  12.0000000  12.0000000  12.0000000  12.0000000  12.0000000
 NucSpn=           0           0           0           0           0           0           0           0           0           0
 AtZEff=   0.0000000   0.0000000   0.0000000   0.0000000   0.0000000   0.0000000   0.0000000   0.0000000   0.0000000   0.0000000
 NQMom=    0.0000000   0.0000000   0.0000000   0.0000000   0.0000000   0.0000000   0.0000000   0.0000000   0.0000000   0.0000000
 NMagM=    0.0000000   0.0000000   0.0000000   0.0000000   0.0000000   0.0000000   0.0000000   0.0000000   0.0000000   0.0000000

  Atom        71          72          73          74          75          76          77          78          79          80
 IAtWgt=          12          12          12          12          12          12          12           1           1           1
 AtmWgt=  12.0000000  12.0000000  12.0000000  12.0000000  12.0000000  12.0000000  12.0000000   1.0078250   1.0078250   1.0078250
 NucSpn=           0           0           0           0           0           0           0           1           1           1
 AtZEff=   0.0000000   0.0000000   0.0000000   0.0000000   0.0000000   0.0000000   0.0000000   0.0000000   0.0000000   0.0000000
 NQMom=    0.0000000   0.0000000   0.0000000   0.0000000   0.0000000   0.0000000   0.0000000   0.0000000   0.0000000   0.0000000
 NMagM=    0.0000000   0.0000000   0.0000000   0.0000000   0.0000000   0.0000000   0.0000000   2.7928460   2.7928460   2.7928460

  Atom        81          82          83          84          85          86          87          88          89          90
 IAtWgt=           1           1           1           1           1           1           1           1           1           1
 AtmWgt=   1.0078250   1.0078250   1.0078250   1.0078250   1.0078250   1.0078250   1.0078250   1.0078250   1.0078250   1.0078250
 NucSpn=           1           1           1           1           1           1           1           1           1           1
 AtZEff=   0.0000000   0.0000000   0.0000000   0.0000000   0.0000000   0.0000000   0.0000000   0.0000000   0.0000000   0.0000000
 NQMom=    0.0000000   0.0000000   0.0000000   0.0000000   0.0000000   0.0000000   0.0000000   0.0000000   0.0000000   0.0000000
 NMagM=    2.7928460   2.7928460   2.7928460   2.7928460   2.7928460   2.7928460   2.7928460   2.7928460   2.7928460   2.7928460

  Atom        91          92          93          94          95          96          97          98          99         100
 IAtWgt=           1           1           1          16           1           1          16           1           1           1
 AtmWgt=   1.0078250   1.0078250   1.0078250  15.9949146   1.0078250   1.0078250  15.9949146   1.0078250   1.0078250   1.0078250
 NucSpn=           1           1           1           0           1           1           0           1           1           1
 AtZEff=   0.0000000   0.0000000   0.0000000   0.0000000   0.0000000   0.0000000   0.0000000   0.0000000   0.0000000   0.0000000
 NQMom=    0.0000000   0.0000000   0.0000000   0.0000000   0.0000000   0.0000000   0.0000000   0.0000000   0.0000000   0.0000000
 NMagM=    2.7928460   2.7928460   2.7928460   0.0000000   2.7928460   2.7928460   0.0000000   2.7928460   2.7928460   2.7928460

  Atom       101         102         103         104         105         106         107         108         109         110
 IAtWgt=           1           1           1          16           1          16           1           1           1          16
 AtmWgt=   1.0078250   1.0078250   1.0078250  15.9949146   1.0078250  15.9949146   1.0078250   1.0078250   1.0078250  15.9949146
 NucSpn=           1           1           1           0           1           0           1           1           1           0
 AtZEff=   0.0000000   0.0000000   0.0000000   0.0000000   0.0000000   0.0000000   0.0000000   0.0000000   0.0000000   0.0000000
 NQMom=    0.0000000   0.0000000   0.0000000   0.0000000   0.0000000   0.0000000   0.0000000   0.0000000   0.0000000   0.0000000
 NMagM=    2.7928460   2.7928460   2.7928460   0.0000000   2.7928460   0.0000000   2.7928460   2.7928460   2.7928460   0.0000000

  Atom       111         112         113         114         115         116         117         118         119         120
 IAtWgt=           1           1           1           1          16           1          16           1           1           1
 AtmWgt=   1.0078250   1.0078250   1.0078250   1.0078250  15.9949146   1.0078250  15.9949146   1.0078250   1.0078250   1.0078250
 NucSpn=           1           1           1           1           0           1           0           1           1           1
 AtZEff=   0.0000000   0.0000000   0.0000000   0.0000000   0.0000000   0.0000000   0.0000000   0.0000000   0.0000000   0.0000000
 NQMom=    0.0000000   0.0000000   0.0000000   0.0000000   0.0000000   0.0000000   0.0000000   0.0000000   0.0000000   0.0000000
 NMagM=    2.7928460   2.7928460   2.7928460   2.7928460   0.0000000   2.7928460   0.0000000   2.7928460   2.7928460   2.7928460

  Atom       121         122         123         124         125         126         127         128         129         130
 IAtWgt=           1           1          16           1           1           1           1           1          12           1
 AtmWgt=   1.0078250   1.0078250  15.9949146   1.0078250   1.0078250   1.0078250   1.0078250   1.0078250  12.0000000   1.0078250
 NucSpn=           1           1           0           1           1           1           1           1           0           1
 AtZEff=   0.0000000   0.0000000   0.0000000   0.0000000   0.0000000   0.0000000   0.0000000   0.0000000   0.0000000   0.0000000
 NQMom=    0.0000000   0.0000000   0.0000000   0.0000000   0.0000000   0.0000000   0.0000000   0.0000000   0.0000000   0.0000000
 NMagM=    2.7928460   2.7928460   0.0000000   2.7928460   2.7928460   2.7928460   2.7928460   2.7928460   0.0000000   2.7928460

  Atom       131         132         133         134         135         136         137         138         139         140
 IAtWgt=           1           1           1          12           1           1           1          12          12           1
 AtmWgt=   1.0078250   1.0078250   1.0078250  12.0000000   1.0078250   1.0078250   1.0078250  12.0000000  12.0000000   1.0078250
 NucSpn=           1           1           1           0           1           1           1           0           0           1
 AtZEff=   0.0000000   0.0000000   0.0000000   0.0000000   0.0000000   0.0000000   0.0000000   0.0000000   0.0000000   0.0000000
 NQMom=    0.0000000   0.0000000   0.0000000   0.0000000   0.0000000   0.0000000   0.0000000   0.0000000   0.0000000   0.0000000
 NMagM=    2.7928460   2.7928460   2.7928460   0.0000000   2.7928460   2.7928460   2.7928460   0.0000000   0.0000000   2.7928460

  Atom       141         142         143         144         145         146         147         148         149         150
 IAtWgt=           1           1           1           1           1          12           1           1           1          12
 AtmWgt=   1.0078250   1.0078250   1.0078250   1.0078250   1.0078250  12.0000000   1.0078250   1.0078250   1.0078250  12.0000000
 NucSpn=           1           1           1           1           1           0           1           1           1           0
 AtZEff=   0.0000000   0.0000000   0.0000000   0.0000000   0.0000000   0.0000000   0.0000000   0.0000000   0.0000000   0.0000000
 NQMom=    0.0000000   0.0000000   0.0000000   0.0000000   0.0000000   0.0000000   0.0000000   0.0000000   0.0000000   0.0000000
 NMagM=    2.7928460   2.7928460   2.7928460   2.7928460   2.7928460   0.0000000   2.7928460   2.7928460   2.7928460   0.0000000

  Atom       151         152         153         154         155         156         157         158         159         160
 IAtWgt=           1           1           1          12          12           1           1           1           1           1
 AtmWgt=   1.0078250   1.0078250   1.0078250  12.0000000  12.0000000   1.0078250   1.0078250   1.0078250   1.0078250   1.0078250
 NucSpn=           1           1           1           0           0           1           1           1           1           1
 AtZEff=   0.0000000   0.0000000   0.0000000   0.0000000   0.0000000   0.0000000   0.0000000   0.0000000   0.0000000   0.0000000
 NQMom=    0.0000000   0.0000000   0.0000000   0.0000000   0.0000000   0.0000000   0.0000000   0.0000000   0.0000000   0.0000000
 NMagM=    2.7928460   2.7928460   2.7928460   0.0000000   0.0000000   2.7928460   2.7928460   2.7928460   2.7928460   2.7928460

  Atom       161
 IAtWgt=           1
 AtmWgt=   1.0078250
 NucSpn=           1
 AtZEff=   0.0000000
 NQMom=    0.0000000
 NMagM=    2.7928460
 Leave Link  101 at Mon Jan 19 21:42:41 2015, MaxMem= 2147483648 cpu:       5.0
 (Enter /opt/g09/l103.exe)

 GradGradGradGradGradGradGradGradGradGradGradGradGradGradGradGradGradGrad
 Berny optimization.
 Initialization pass.
                           ----------------------------
                           !    Initial Parameters    !
                           ! (Angstroms and Degrees)  !
 --------------------------                            --------------------------
 ! Name  Definition              Value          Derivative Info.                !
 --------------------------------------------------------------------------------
 ! R1    R(1,2)                  1.5081         estimate D2E/DX2                !
 ! R2    R(1,5)                  1.5082         estimate D2E/DX2                !
 ! R3    R(1,6)                  1.5013         estimate D2E/DX2                !
 ! R4    R(1,9)                  1.5067         estimate D2E/DX2                !
 ! R5    R(2,3)                  1.3774         estimate D2E/DX2                !
 ! R6    R(2,18)                 1.3941         estimate D2E/DX2                !
 ! R7    R(3,4)                  1.4458         estimate D2E/DX2                !
 ! R8    R(3,21)                 1.392          estimate D2E/DX2                !
 ! R9    R(4,5)                  1.3787         estimate D2E/DX2                !
 ! R10   R(4,14)                 1.3953         estimate D2E/DX2                !
 ! R11   R(5,17)                 1.3897         estimate D2E/DX2                !
 ! R12   R(6,7)                  1.3766         estimate D2E/DX2                !
 ! R13   R(6,10)                 1.3802         estimate D2E/DX2                !
 ! R14   R(7,8)                  1.4335         estimate D2E/DX2                !
 ! R15   R(7,13)                 1.3948         estimate D2E/DX2                !
 ! R16   R(8,9)                  1.382          estimate D2E/DX2                !
 ! R17   R(8,22)                 1.3865         estimate D2E/DX2                !
 ! R18   R(9,25)                 1.3901         estimate D2E/DX2                !
 ! R19   R(10,11)                1.4034         estimate D2E/DX2                !
 ! R20   R(10,89)                1.0837         estimate D2E/DX2                !
 ! R21   R(11,12)                1.4155         estimate D2E/DX2                !
 ! R22   R(11,26)                1.4155         estimate D2E/DX2                !
 ! R23   R(12,13)                1.3974         estimate D2E/DX2                !
 ! R24   R(12,87)                1.0836         estimate D2E/DX2                !
 ! R25   R(13,86)                1.0812         estimate D2E/DX2                !
 ! R26   R(14,15)                1.4017         estimate D2E/DX2                !
 ! R27   R(14,82)                1.0807         estimate D2E/DX2                !
 ! R28   R(15,16)                1.4155         estimate D2E/DX2                !
 ! R29   R(15,83)                1.0829         estimate D2E/DX2                !
 ! R30   R(16,17)                1.4116         estimate D2E/DX2                !
 ! R31   R(16,27)                1.4285         estimate D2E/DX2                !
 ! R32   R(17,88)                1.0838         estimate D2E/DX2                !
 ! R33   R(18,19)                1.4124         estimate D2E/DX2                !
 ! R34   R(18,79)                1.0808         estimate D2E/DX2                !
 ! R35   R(19,20)                1.4293         estimate D2E/DX2                !
 ! R36   R(19,28)                1.4505         estimate D2E/DX2                !
 ! R37   R(20,21)                1.4107         estimate D2E/DX2                !
 ! R38   R(20,80)                1.0822         estimate D2E/DX2                !
 ! R39   R(21,81)                1.0838         estimate D2E/DX2                !
 ! R40   R(22,23)                1.3997         estimate D2E/DX2                !
 ! R41   R(22,84)                1.0847         estimate D2E/DX2                !
 ! R42   R(23,24)                1.434          estimate D2E/DX2                !
 ! R43   R(23,85)                1.0824         estimate D2E/DX2                !
 ! R44   R(24,25)                1.41           estimate D2E/DX2                !
 ! R45   R(24,29)                1.4285         estimate D2E/DX2                !
 ! R46   R(25,78)                1.0822         estimate D2E/DX2                !
 ! R47   R(26,34)                1.4234         estimate D2E/DX2                !
 ! R48   R(26,35)                1.4204         estimate D2E/DX2                !
 ! R49   R(27,36)                1.4219         estimate D2E/DX2                !
 ! R50   R(27,37)                1.4141         estimate D2E/DX2                !
 ! R51   R(28,31)                1.4423         estimate D2E/DX2                !
 ! R52   R(28,33)                1.418          estimate D2E/DX2                !
 ! R53   R(29,30)                1.4222         estimate D2E/DX2                !
 ! R54   R(29,32)                1.4559         estimate D2E/DX2                !
 ! R55   R(30,73)                1.4086         estimate D2E/DX2                !
 ! R56   R(30,77)                1.384          estimate D2E/DX2                !
 ! R57   R(31,58)                1.3539         estimate D2E/DX2                !
 ! R58   R(31,62)                1.3992         estimate D2E/DX2                !
 ! R59   R(32,68)                1.3879         estimate D2E/DX2                !
 ! R60   R(32,72)                1.408          estimate D2E/DX2                !
 ! R61   R(33,63)                1.383          estimate D2E/DX2                !
 ! R62   R(33,67)                1.4076         estimate D2E/DX2                !
 ! R63   R(34,43)                1.3953         estimate D2E/DX2                !
 ! R64   R(34,47)                1.4061         estimate D2E/DX2                !
 ! R65   R(35,48)                1.3943         estimate D2E/DX2                !
 ! R66   R(35,52)                1.4065         estimate D2E/DX2                !
 ! R67   R(36,38)                1.4097         estimate D2E/DX2                !
 ! R68   R(36,42)                1.3934         estimate D2E/DX2                !
 ! R69   R(37,53)                1.3953         estimate D2E/DX2                !
 ! R70   R(37,57)                1.3998         estimate D2E/DX2                !
 ! R71   R(38,39)                1.3915         estimate D2E/DX2                !
 ! R72   R(38,99)                1.0834         estimate D2E/DX2                !
 ! R73   R(39,40)                1.3924         estimate D2E/DX2                !
 ! R74   R(39,98)                1.0827         estimate D2E/DX2                !
 ! R75   R(40,41)                1.4138         estimate D2E/DX2                !
 ! R76   R(40,92)                1.0799         estimate D2E/DX2                !
 ! R77   R(41,42)                1.386          estimate D2E/DX2                !
 ! R78   R(41,94)                1.3512         estimate D2E/DX2                !
 ! R79   R(42,95)                1.0836         estimate D2E/DX2                !
 ! R80   R(43,44)                1.3831         estimate D2E/DX2                !
 ! R81   R(43,96)                1.0839         estimate D2E/DX2                !
 ! R82   R(44,45)                1.4123         estimate D2E/DX2                !
 ! R83   R(44,97)                1.3515         estimate D2E/DX2                !
 ! R84   R(45,46)                1.3949         estimate D2E/DX2                !
 ! R85   R(45,93)                1.08           estimate D2E/DX2                !
 ! R86   R(46,47)                1.3943         estimate D2E/DX2                !
 ! R87   R(46,100)               1.0821         estimate D2E/DX2                !
 ! R88   R(47,101)               1.0822         estimate D2E/DX2                !
 ! R89   R(48,49)                1.3818         estimate D2E/DX2                !
 ! R90   R(48,124)               1.0841         estimate D2E/DX2                !
 ! R91   R(49,50)                1.4124         estimate D2E/DX2                !
 ! R92   R(49,123)               1.3512         estimate D2E/DX2                !
 ! R93   R(50,51)                1.3952         estimate D2E/DX2                !
 ! R94   R(50,126)               1.0797         estimate D2E/DX2                !
 ! R95   R(51,52)                1.3938         estimate D2E/DX2                !
 ! R96   R(51,122)               1.0821         estimate D2E/DX2                !
 ! R97   R(52,121)               1.0832         estimate D2E/DX2                !
 ! R98   R(53,54)                1.3813         estimate D2E/DX2                !
 ! R99   R(53,118)               1.0852         estimate D2E/DX2                !
 ! R100  R(54,55)                1.4132         estimate D2E/DX2                !
 ! R101  R(54,117)               1.3513         estimate D2E/DX2                !
 ! R102  R(55,56)                1.3957         estimate D2E/DX2                !
 ! R103  R(55,127)               1.0788         estimate D2E/DX2                !
 ! R104  R(56,57)                1.3909         estimate D2E/DX2                !
 ! R105  R(56,119)               1.0809         estimate D2E/DX2                !
 ! R106  R(57,120)               1.0818         estimate D2E/DX2                !
 ! R107  R(58,59)                1.4081         estimate D2E/DX2                !
 ! R108  R(58,112)               1.0397         estimate D2E/DX2                !
 ! R109  R(59,60)                1.3721         estimate D2E/DX2                !
 ! R110  R(59,111)               1.0608         estimate D2E/DX2                !
 ! R111  R(60,61)                1.3806         estimate D2E/DX2                !
 ! R112  R(60,125)               1.083          estimate D2E/DX2                !
 ! R113  R(61,62)                1.4153         estimate D2E/DX2                !
 ! R114  R(61,133)               1.0764         estimate D2E/DX2                !
 ! R115  R(62,110)               1.3332         estimate D2E/DX2                !
 ! R116  R(63,64)                1.3929         estimate D2E/DX2                !
 ! R117  R(63,107)               1.0821         estimate D2E/DX2                !
 ! R118  R(64,65)                1.3954         estimate D2E/DX2                !
 ! R119  R(64,106)               1.3428         estimate D2E/DX2                !
 ! R120  R(65,66)                1.3968         estimate D2E/DX2                !
 ! R121  R(65,91)                1.082          estimate D2E/DX2                !
 ! R122  R(66,67)                1.4011         estimate D2E/DX2                !
 ! R123  R(66,108)               1.0821         estimate D2E/DX2                !
 ! R124  R(67,109)               1.0835         estimate D2E/DX2                !
 ! R125  R(68,69)                1.4423         estimate D2E/DX2                !
 ! R126  R(68,105)               1.0846         estimate D2E/DX2                !
 ! R127  R(69,70)                1.3614         estimate D2E/DX2                !
 ! R128  R(69,104)               1.3469         estimate D2E/DX2                !
 ! R129  R(70,71)                1.3777         estimate D2E/DX2                !
 ! R130  R(70,90)                1.0845         estimate D2E/DX2                !
 ! R131  R(71,72)                1.4061         estimate D2E/DX2                !
 ! R132  R(71,103)               1.0745         estimate D2E/DX2                !
 ! R133  R(72,102)               1.0758         estimate D2E/DX2                !
 ! R134  R(73,74)                1.3979         estimate D2E/DX2                !
 ! R135  R(73,113)               1.0814         estimate D2E/DX2                !
 ! R136  R(74,75)                1.3979         estimate D2E/DX2                !
 ! R137  R(74,114)               1.0821         estimate D2E/DX2                !
 ! R138  R(75,76)                1.4004         estimate D2E/DX2                !
 ! R139  R(75,128)               1.0813         estimate D2E/DX2                !
 ! R140  R(76,77)                1.4014         estimate D2E/DX2                !
 ! R141  R(76,115)               1.3541         estimate D2E/DX2                !
 ! R142  R(77,116)               1.0834         estimate D2E/DX2                !
 ! R143  R(94,146)               1.3696         estimate D2E/DX2                !
 ! R144  R(97,154)               1.369          estimate D2E/DX2                !
 ! R145  R(104,138)              1.3325         estimate D2E/DX2                !
 ! R146  R(106,129)              1.3783         estimate D2E/DX2                !
 ! R147  R(110,134)              1.3668         estimate D2E/DX2                !
 ! R148  R(115,139)              1.3805         estimate D2E/DX2                !
 ! R149  R(117,150)              1.3683         estimate D2E/DX2                !
 ! R150  R(123,155)              1.3686         estimate D2E/DX2                !
 ! R151  R(129,130)              1.1133         estimate D2E/DX2                !
 ! R152  R(129,131)              1.1114         estimate D2E/DX2                !
 ! R153  R(129,132)              1.1024         estimate D2E/DX2                !
 ! R154  R(134,135)              1.1096         estimate D2E/DX2                !
 ! R155  R(134,136)              1.0994         estimate D2E/DX2                !
 ! R156  R(134,137)              1.1048         estimate D2E/DX2                !
 ! R157  R(138,143)              1.1058         estimate D2E/DX2                !
 ! R158  R(138,144)              1.077          estimate D2E/DX2                !
 ! R159  R(138,145)              1.1057         estimate D2E/DX2                !
 ! R160  R(139,140)              1.1046         estimate D2E/DX2                !
 ! R161  R(139,141)              1.1126         estimate D2E/DX2                !
 ! R162  R(139,142)              1.1136         estimate D2E/DX2                !
 ! R163  R(146,147)              1.1056         estimate D2E/DX2                !
 ! R164  R(146,148)              1.1113         estimate D2E/DX2                !
 ! R165  R(146,149)              1.1105         estimate D2E/DX2                !
 ! R166  R(150,151)              1.106          estimate D2E/DX2                !
 ! R167  R(150,152)              1.1109         estimate D2E/DX2                !
 ! R168  R(150,153)              1.1102         estimate D2E/DX2                !
 ! R169  R(154,159)              1.1062         estimate D2E/DX2                !
 ! R170  R(154,160)              1.1111         estimate D2E/DX2                !
 ! R171  R(154,161)              1.11           estimate D2E/DX2                !
 ! R172  R(155,156)              1.1061         estimate D2E/DX2                !
 ! R173  R(155,157)              1.1111         estimate D2E/DX2                !
 ! R174  R(155,158)              1.1099         estimate D2E/DX2                !
 ! A1    A(2,1,5)              100.3087         estimate D2E/DX2                !
 ! A2    A(2,1,6)              113.8163         estimate D2E/DX2                !
 ! A3    A(2,1,9)              114.726          estimate D2E/DX2                !
 ! A4    A(5,1,6)              113.5417         estimate D2E/DX2                !
 ! A5    A(5,1,9)              115.1599         estimate D2E/DX2                !
 ! A6    A(6,1,9)              100.0232         estimate D2E/DX2                !
 ! A7    A(1,2,3)              111.418          estimate D2E/DX2                !
 ! A8    A(1,2,18)             127.2336         estimate D2E/DX2                !
 ! A9    A(3,2,18)             121.3399         estimate D2E/DX2                !
 ! A10   A(2,3,4)              108.4867         estimate D2E/DX2                !
 ! A11   A(2,3,21)             121.3257         estimate D2E/DX2                !
 ! A12   A(4,3,21)             130.18           estimate D2E/DX2                !
 ! A13   A(3,4,5)              108.3062         estimate D2E/DX2                !
 ! A14   A(3,4,14)             130.2613         estimate D2E/DX2                !
 ! A15   A(5,4,14)             121.4308         estimate D2E/DX2                !
 ! A16   A(1,5,4)              111.4605         estimate D2E/DX2                !
 ! A17   A(1,5,17)             127.4623         estimate D2E/DX2                !
 ! A18   A(4,5,17)             121.0713         estimate D2E/DX2                !
 ! A19   A(1,6,7)              111.9736         estimate D2E/DX2                !
 ! A20   A(1,6,10)             126.8766         estimate D2E/DX2                !
 ! A21   A(7,6,10)             121.1497         estimate D2E/DX2                !
 ! A22   A(6,7,8)              108.1032         estimate D2E/DX2                !
 ! A23   A(6,7,13)             121.6882         estimate D2E/DX2                !
 ! A24   A(8,7,13)             130.2068         estimate D2E/DX2                !
 ! A25   A(7,8,9)              108.7073         estimate D2E/DX2                !
 ! A26   A(7,8,22)             129.5412         estimate D2E/DX2                !
 ! A27   A(9,8,22)             121.7439         estimate D2E/DX2                !
 ! A28   A(1,9,8)              111.1764         estimate D2E/DX2                !
 ! A29   A(1,9,25)             127.6147         estimate D2E/DX2                !
 ! A30   A(8,9,25)             121.1991         estimate D2E/DX2                !
 ! A31   A(6,10,11)            118.686          estimate D2E/DX2                !
 ! A32   A(6,10,89)            120.0173         estimate D2E/DX2                !
 ! A33   A(11,10,89)           121.2808         estimate D2E/DX2                !
 ! A34   A(10,11,12)           120.1487         estimate D2E/DX2                !
 ! A35   A(10,11,26)           119.5664         estimate D2E/DX2                !
 ! A36   A(12,11,26)           120.2848         estimate D2E/DX2                !
 ! A37   A(11,12,13)           120.2013         estimate D2E/DX2                !
 ! A38   A(11,12,87)           120.251          estimate D2E/DX2                !
 ! A39   A(13,12,87)           119.5265         estimate D2E/DX2                !
 ! A40   A(7,13,12)            118.1027         estimate D2E/DX2                !
 ! A41   A(7,13,86)            121.7337         estimate D2E/DX2                !
 ! A42   A(12,13,86)           120.1636         estimate D2E/DX2                !
 ! A43   A(4,14,15)            118.4688         estimate D2E/DX2                !
 ! A44   A(4,14,82)            121.4365         estimate D2E/DX2                !
 ! A45   A(15,14,82)           120.0941         estimate D2E/DX2                !
 ! A46   A(14,15,16)           120.4703         estimate D2E/DX2                !
 ! A47   A(14,15,83)           119.4119         estimate D2E/DX2                !
 ! A48   A(16,15,83)           120.0867         estimate D2E/DX2                !
 ! A49   A(15,16,17)           119.5933         estimate D2E/DX2                !
 ! A50   A(15,16,27)           120.2196         estimate D2E/DX2                !
 ! A51   A(17,16,27)           120.1858         estimate D2E/DX2                !
 ! A52   A(5,17,16)            118.9306         estimate D2E/DX2                !
 ! A53   A(5,17,88)            119.8205         estimate D2E/DX2                !
 ! A54   A(16,17,88)           121.2417         estimate D2E/DX2                !
 ! A55   A(2,18,19)            119.4852         estimate D2E/DX2                !
 ! A56   A(2,18,79)            119.6077         estimate D2E/DX2                !
 ! A57   A(19,18,79)           120.8786         estimate D2E/DX2                !
 ! A58   A(18,19,20)           118.5483         estimate D2E/DX2                !
 ! A59   A(18,19,28)           120.0998         estimate D2E/DX2                !
 ! A60   A(20,19,28)           121.3505         estimate D2E/DX2                !
 ! A61   A(19,20,21)           120.7717         estimate D2E/DX2                !
 ! A62   A(19,20,80)           120.6275         estimate D2E/DX2                !
 ! A63   A(21,20,80)           118.5864         estimate D2E/DX2                !
 ! A64   A(3,21,20)            118.5038         estimate D2E/DX2                !
 ! A65   A(3,21,81)            120.5594         estimate D2E/DX2                !
 ! A66   A(20,21,81)           120.9337         estimate D2E/DX2                !
 ! A67   A(8,22,23)            118.172          estimate D2E/DX2                !
 ! A68   A(8,22,84)            120.8178         estimate D2E/DX2                !
 ! A69   A(23,22,84)           120.9962         estimate D2E/DX2                !
 ! A70   A(22,23,24)           121.0383         estimate D2E/DX2                !
 ! A71   A(22,23,85)           118.4765         estimate D2E/DX2                !
 ! A72   A(24,23,85)           120.4846         estimate D2E/DX2                !
 ! A73   A(23,24,25)           118.632          estimate D2E/DX2                !
 ! A74   A(23,24,29)           120.4032         estimate D2E/DX2                !
 ! A75   A(25,24,29)           120.8988         estimate D2E/DX2                !
 ! A76   A(9,25,24)            119.1657         estimate D2E/DX2                !
 ! A77   A(9,25,78)            119.8822         estimate D2E/DX2                !
 ! A78   A(24,25,78)           120.8682         estimate D2E/DX2                !
 ! A79   A(11,26,34)           120.3367         estimate D2E/DX2                !
 ! A80   A(11,26,35)           120.2949         estimate D2E/DX2                !
 ! A81   A(34,26,35)           119.3678         estimate D2E/DX2                !
 ! A82   A(16,27,36)           121.1535         estimate D2E/DX2                !
 ! A83   A(16,27,37)           120.1877         estimate D2E/DX2                !
 ! A84   A(36,27,37)           118.599          estimate D2E/DX2                !
 ! A85   A(19,28,31)           121.0316         estimate D2E/DX2                !
 ! A86   A(19,28,33)           119.6156         estimate D2E/DX2                !
 ! A87   A(31,28,33)           119.3526         estimate D2E/DX2                !
 ! A88   A(24,29,30)           119.3266         estimate D2E/DX2                !
 ! A89   A(24,29,32)           122.9247         estimate D2E/DX2                !
 ! A90   A(30,29,32)           117.7476         estimate D2E/DX2                !
 ! A91   A(29,30,73)           120.8987         estimate D2E/DX2                !
 ! A92   A(29,30,77)           119.3194         estimate D2E/DX2                !
 ! A93   A(73,30,77)           119.781          estimate D2E/DX2                !
 ! A94   A(28,31,58)           118.0641         estimate D2E/DX2                !
 ! A95   A(28,31,62)           123.9385         estimate D2E/DX2                !
 ! A96   A(58,31,62)           117.9219         estimate D2E/DX2                !
 ! A97   A(29,32,68)           120.3004         estimate D2E/DX2                !
 ! A98   A(29,32,72)           121.4073         estimate D2E/DX2                !
 ! A99   A(68,32,72)           118.2481         estimate D2E/DX2                !
 ! A100  A(28,33,63)           118.5265         estimate D2E/DX2                !
 ! A101  A(28,33,67)           121.8123         estimate D2E/DX2                !
 ! A102  A(63,33,67)           119.6539         estimate D2E/DX2                !
 ! A103  A(26,34,43)           119.076          estimate D2E/DX2                !
 ! A104  A(26,34,47)           121.1462         estimate D2E/DX2                !
 ! A105  A(43,34,47)           119.7772         estimate D2E/DX2                !
 ! A106  A(26,35,48)           118.9377         estimate D2E/DX2                !
 ! A107  A(26,35,52)           121.202          estimate D2E/DX2                !
 ! A108  A(48,35,52)           119.8603         estimate D2E/DX2                !
 ! A109  A(27,36,38)           120.5169         estimate D2E/DX2                !
 ! A110  A(27,36,42)           119.7203         estimate D2E/DX2                !
 ! A111  A(38,36,42)           119.7443         estimate D2E/DX2                !
 ! A112  A(27,37,53)           119.1391         estimate D2E/DX2                !
 ! A113  A(27,37,57)           120.6404         estimate D2E/DX2                !
 ! A114  A(53,37,57)           120.2185         estimate D2E/DX2                !
 ! A115  A(36,38,39)           120.12           estimate D2E/DX2                !
 ! A116  A(36,38,99)           120.6718         estimate D2E/DX2                !
 ! A117  A(39,38,99)           119.193          estimate D2E/DX2                !
 ! A118  A(38,39,40)           119.8165         estimate D2E/DX2                !
 ! A119  A(38,39,98)           120.2            estimate D2E/DX2                !
 ! A120  A(40,39,98)           119.9835         estimate D2E/DX2                !
 ! A121  A(39,40,41)           120.2066         estimate D2E/DX2                !
 ! A122  A(39,40,92)           118.4076         estimate D2E/DX2                !
 ! A123  A(41,40,92)           121.3847         estimate D2E/DX2                !
 ! A124  A(40,41,42)           119.6237         estimate D2E/DX2                !
 ! A125  A(40,41,94)           122.5285         estimate D2E/DX2                !
 ! A126  A(42,41,94)           117.8477         estimate D2E/DX2                !
 ! A127  A(36,42,41)           120.4606         estimate D2E/DX2                !
 ! A128  A(36,42,95)           120.0005         estimate D2E/DX2                !
 ! A129  A(41,42,95)           119.5143         estimate D2E/DX2                !
 ! A130  A(34,43,44)           120.6903         estimate D2E/DX2                !
 ! A131  A(34,43,96)           120.0452         estimate D2E/DX2                !
 ! A132  A(44,43,96)           119.2442         estimate D2E/DX2                !
 ! A133  A(43,44,45)           119.5252         estimate D2E/DX2                !
 ! A134  A(43,44,97)           117.6694         estimate D2E/DX2                !
 ! A135  A(45,44,97)           122.8048         estimate D2E/DX2                !
 ! A136  A(44,45,46)           120.1501         estimate D2E/DX2                !
 ! A137  A(44,45,93)           121.2344         estimate D2E/DX2                !
 ! A138  A(46,45,93)           118.6155         estimate D2E/DX2                !
 ! A139  A(45,46,47)           119.9156         estimate D2E/DX2                !
 ! A140  A(45,46,100)          119.8693         estimate D2E/DX2                !
 ! A141  A(47,46,100)          120.2151         estimate D2E/DX2                !
 ! A142  A(34,47,46)           119.9235         estimate D2E/DX2                !
 ! A143  A(34,47,101)          120.5117         estimate D2E/DX2                !
 ! A144  A(46,47,101)          119.5427         estimate D2E/DX2                !
 ! A145  A(35,48,49)           120.6834         estimate D2E/DX2                !
 ! A146  A(35,48,124)          120.0304         estimate D2E/DX2                !
 ! A147  A(49,48,124)          119.2607         estimate D2E/DX2                !
 ! A148  A(48,49,50)           119.5224         estimate D2E/DX2                !
 ! A149  A(48,49,123)          117.6307         estimate D2E/DX2                !
 ! A150  A(50,49,123)          122.8455         estimate D2E/DX2                !
 ! A151  A(49,50,51)           120.1575         estimate D2E/DX2                !
 ! A152  A(49,50,126)          121.221          estimate D2E/DX2                !
 ! A153  A(51,50,126)          118.6214         estimate D2E/DX2                !
 ! A154  A(50,51,52)           119.9128         estimate D2E/DX2                !
 ! A155  A(50,51,122)          119.9323         estimate D2E/DX2                !
 ! A156  A(52,51,122)          120.1547         estimate D2E/DX2                !
 ! A157  A(35,52,51)           119.8445         estimate D2E/DX2                !
 ! A158  A(35,52,121)          120.6559         estimate D2E/DX2                !
 ! A159  A(51,52,121)          119.4821         estimate D2E/DX2                !
 ! A160  A(37,53,54)           120.4201         estimate D2E/DX2                !
 ! A161  A(37,53,118)          120.198          estimate D2E/DX2                !
 ! A162  A(54,53,118)          119.3669         estimate D2E/DX2                !
 ! A163  A(53,54,55)           119.4331         estimate D2E/DX2                !
 ! A164  A(53,54,117)          117.696          estimate D2E/DX2                !
 ! A165  A(55,54,117)          122.8709         estimate D2E/DX2                !
 ! A166  A(54,55,56)           120.2059         estimate D2E/DX2                !
 ! A167  A(54,55,127)          121.2463         estimate D2E/DX2                !
 ! A168  A(56,55,127)          118.5477         estimate D2E/DX2                !
 ! A169  A(55,56,57)           119.8646         estimate D2E/DX2                !
 ! A170  A(55,56,119)          120.1699         estimate D2E/DX2                !
 ! A171  A(57,56,119)          119.9653         estimate D2E/DX2                !
 ! A172  A(37,57,56)           119.8392         estimate D2E/DX2                !
 ! A173  A(37,57,120)          120.1786         estimate D2E/DX2                !
 ! A174  A(56,57,120)          119.9549         estimate D2E/DX2                !
 ! A175  A(31,58,59)           122.1555         estimate D2E/DX2                !
 ! A176  A(31,58,112)          111.2274         estimate D2E/DX2                !
 ! A177  A(59,58,112)          126.5627         estimate D2E/DX2                !
 ! A178  A(58,59,60)           120.1965         estimate D2E/DX2                !
 ! A179  A(58,59,111)          123.8485         estimate D2E/DX2                !
 ! A180  A(60,59,111)          115.9547         estimate D2E/DX2                !
 ! A181  A(59,60,61)           119.0372         estimate D2E/DX2                !
 ! A182  A(59,60,125)          119.6642         estimate D2E/DX2                !
 ! A183  A(61,60,125)          121.2967         estimate D2E/DX2                !
 ! A184  A(60,61,62)           120.2026         estimate D2E/DX2                !
 ! A185  A(60,61,133)          118.2088         estimate D2E/DX2                !
 ! A186  A(62,61,133)          121.5806         estimate D2E/DX2                !
 ! A187  A(31,62,61)           120.4467         estimate D2E/DX2                !
 ! A188  A(31,62,110)          119.2277         estimate D2E/DX2                !
 ! A189  A(61,62,110)          120.288          estimate D2E/DX2                !
 ! A190  A(33,63,64)           120.5384         estimate D2E/DX2                !
 ! A191  A(33,63,107)          118.9148         estimate D2E/DX2                !
 ! A192  A(64,63,107)          120.5327         estimate D2E/DX2                !
 ! A193  A(63,64,65)           120.2172         estimate D2E/DX2                !
 ! A194  A(63,64,106)          119.7717         estimate D2E/DX2                !
 ! A195  A(65,64,106)          119.9396         estimate D2E/DX2                !
 ! A196  A(64,65,66)           119.7533         estimate D2E/DX2                !
 ! A197  A(64,65,91)           119.9372         estimate D2E/DX2                !
 ! A198  A(66,65,91)           120.2609         estimate D2E/DX2                !
 ! A199  A(65,66,67)           119.8732         estimate D2E/DX2                !
 ! A200  A(65,66,108)          119.7752         estimate D2E/DX2                !
 ! A201  A(67,66,108)          120.3501         estimate D2E/DX2                !
 ! A202  A(33,67,66)           119.8772         estimate D2E/DX2                !
 ! A203  A(33,67,109)          120.5521         estimate D2E/DX2                !
 ! A204  A(66,67,109)          119.5702         estimate D2E/DX2                !
 ! A205  A(32,68,69)           119.7901         estimate D2E/DX2                !
 ! A206  A(32,68,105)          117.0147         estimate D2E/DX2                !
 ! A207  A(69,68,105)          123.1543         estimate D2E/DX2                !
 ! A208  A(68,69,70)           120.6188         estimate D2E/DX2                !
 ! A209  A(68,69,104)          123.315          estimate D2E/DX2                !
 ! A210  A(70,69,104)          116.0659         estimate D2E/DX2                !
 ! A211  A(69,70,71)           120.0497         estimate D2E/DX2                !
 ! A212  A(69,70,90)           118.1899         estimate D2E/DX2                !
 ! A213  A(71,70,90)           121.7545         estimate D2E/DX2                !
 ! A214  A(70,71,72)           120.3885         estimate D2E/DX2                !
 ! A215  A(70,71,103)          118.11           estimate D2E/DX2                !
 ! A216  A(72,71,103)          121.5007         estimate D2E/DX2                !
 ! A217  A(32,72,71)           120.8618         estimate D2E/DX2                !
 ! A218  A(32,72,102)          120.6122         estimate D2E/DX2                !
 ! A219  A(71,72,102)          118.5161         estimate D2E/DX2                !
 ! A220  A(30,73,74)           119.5839         estimate D2E/DX2                !
 ! A221  A(30,73,113)          120.5252         estimate D2E/DX2                !
 ! A222  A(74,73,113)          119.8595         estimate D2E/DX2                !
 ! A223  A(73,74,75)           120.1917         estimate D2E/DX2                !
 ! A224  A(73,74,114)          119.8173         estimate D2E/DX2                !
 ! A225  A(75,74,114)          119.9908         estimate D2E/DX2                !
 ! A226  A(74,75,76)           120.2615         estimate D2E/DX2                !
 ! A227  A(74,75,128)          119.9423         estimate D2E/DX2                !
 ! A228  A(76,75,128)          119.7957         estimate D2E/DX2                !
 ! A229  A(75,76,77)           119.0963         estimate D2E/DX2                !
 ! A230  A(75,76,115)          119.4942         estimate D2E/DX2                !
 ! A231  A(77,76,115)          121.4094         estimate D2E/DX2                !
 ! A232  A(30,77,76)           121.0536         estimate D2E/DX2                !
 ! A233  A(30,77,116)          117.9763         estimate D2E/DX2                !
 ! A234  A(76,77,116)          120.9562         estimate D2E/DX2                !
 ! A235  A(41,94,146)          123.5892         estimate D2E/DX2                !
 ! A236  A(44,97,154)          123.8337         estimate D2E/DX2                !
 ! A237  A(69,104,138)         119.118          estimate D2E/DX2                !
 ! A238  A(64,106,129)         118.5349         estimate D2E/DX2                !
 ! A239  A(62,110,134)         118.3989         estimate D2E/DX2                !
 ! A240  A(76,115,139)         123.1596         estimate D2E/DX2                !
 ! A241  A(54,117,150)         123.6469         estimate D2E/DX2                !
 ! A242  A(49,123,155)         123.8129         estimate D2E/DX2                !
 ! A243  A(106,129,130)        107.7679         estimate D2E/DX2                !
 ! A244  A(106,129,131)        111.9473         estimate D2E/DX2                !
 ! A245  A(106,129,132)        110.2144         estimate D2E/DX2                !
 ! A246  A(130,129,131)        107.8342         estimate D2E/DX2                !
 ! A247  A(130,129,132)        109.934          estimate D2E/DX2                !
 ! A248  A(131,129,132)        109.0962         estimate D2E/DX2                !
 ! A249  A(110,134,135)        108.2867         estimate D2E/DX2                !
 ! A250  A(110,134,136)        108.5992         estimate D2E/DX2                !
 ! A251  A(110,134,137)        111.2143         estimate D2E/DX2                !
 ! A252  A(135,134,136)        110.057          estimate D2E/DX2                !
 ! A253  A(135,134,137)        106.4196         estimate D2E/DX2                !
 ! A254  A(136,134,137)        112.1848         estimate D2E/DX2                !
 ! A255  A(104,138,143)        114.5541         estimate D2E/DX2                !
 ! A256  A(104,138,144)         99.8804         estimate D2E/DX2                !
 ! A257  A(104,138,145)        105.9136         estimate D2E/DX2                !
 ! A258  A(143,138,144)        110.7898         estimate D2E/DX2                !
 ! A259  A(143,138,145)        113.0511         estimate D2E/DX2                !
 ! A260  A(144,138,145)        111.8779         estimate D2E/DX2                !
 ! A261  A(115,139,140)        109.6733         estimate D2E/DX2                !
 ! A262  A(115,139,141)        109.6397         estimate D2E/DX2                !
 ! A263  A(115,139,142)        109.6899         estimate D2E/DX2                !
 ! A264  A(140,139,141)        109.0823         estimate D2E/DX2                !
 ! A265  A(140,139,142)        109.0457         estimate D2E/DX2                !
 ! A266  A(141,139,142)        109.6935         estimate D2E/DX2                !
 ! A267  A(94,146,147)         108.8892         estimate D2E/DX2                !
 ! A268  A(94,146,148)         109.3779         estimate D2E/DX2                !
 ! A269  A(94,146,149)         108.789          estimate D2E/DX2                !
 ! A270  A(147,146,148)        109.4774         estimate D2E/DX2                !
 ! A271  A(147,146,149)        109.6185         estimate D2E/DX2                !
 ! A272  A(148,146,149)        110.6595         estimate D2E/DX2                !
 ! A273  A(117,150,151)        108.8368         estimate D2E/DX2                !
 ! A274  A(117,150,152)        109.1718         estimate D2E/DX2                !
 ! A275  A(117,150,153)        108.7838         estimate D2E/DX2                !
 ! A276  A(151,150,152)        109.5148         estimate D2E/DX2                !
 ! A277  A(151,150,153)        109.6877         estimate D2E/DX2                !
 ! A278  A(152,150,153)        110.812          estimate D2E/DX2                !
 ! A279  A(97,154,159)         108.7633         estimate D2E/DX2                !
 ! A280  A(97,154,160)         109.2359         estimate D2E/DX2                !
 ! A281  A(97,154,161)         108.9335         estimate D2E/DX2                !
 ! A282  A(159,154,160)        109.4193         estimate D2E/DX2                !
 ! A283  A(159,154,161)        109.6656         estimate D2E/DX2                !
 ! A284  A(160,154,161)        110.7897         estimate D2E/DX2                !
 ! A285  A(123,155,156)        108.7439         estimate D2E/DX2                !
 ! A286  A(123,155,157)        109.2234         estimate D2E/DX2                !
 ! A287  A(123,155,158)        108.8914         estimate D2E/DX2                !
 ! A288  A(156,155,157)        109.4382         estimate D2E/DX2                !
 ! A289  A(156,155,158)        109.7008         estimate D2E/DX2                !
 ! A290  A(157,155,158)        110.8085         estimate D2E/DX2                !
 ! D1    D(5,1,2,3)             -0.3536         estimate D2E/DX2                !
 ! D2    D(5,1,2,18)          -179.2911         estimate D2E/DX2                !
 ! D3    D(6,1,2,3)            121.2502         estimate D2E/DX2                !
 ! D4    D(6,1,2,18)           -57.6873         estimate D2E/DX2                !
 ! D5    D(9,1,2,3)           -124.3746         estimate D2E/DX2                !
 ! D6    D(9,1,2,18)            56.6879         estimate D2E/DX2                !
 ! D7    D(2,1,5,4)             -0.5848         estimate D2E/DX2                !
 ! D8    D(2,1,5,17)           178.5291         estimate D2E/DX2                !
 ! D9    D(6,1,5,4)           -122.3836         estimate D2E/DX2                !
 ! D10   D(6,1,5,17)            56.7303         estimate D2E/DX2                !
 ! D11   D(9,1,5,4)            123.1355         estimate D2E/DX2                !
 ! D12   D(9,1,5,17)           -57.7506         estimate D2E/DX2                !
 ! D13   D(2,1,6,7)            121.7031         estimate D2E/DX2                !
 ! D14   D(2,1,6,10)           -58.3704         estimate D2E/DX2                !
 ! D15   D(5,1,6,7)           -124.3635         estimate D2E/DX2                !
 ! D16   D(5,1,6,10)            55.5629         estimate D2E/DX2                !
 ! D17   D(9,1,6,7)             -1.1381         estimate D2E/DX2                !
 ! D18   D(9,1,6,10)           178.7883         estimate D2E/DX2                !
 ! D19   D(2,1,9,8)           -121.6948         estimate D2E/DX2                !
 ! D20   D(2,1,9,25)            59.4484         estimate D2E/DX2                !
 ! D21   D(5,1,9,8)            122.5857         estimate D2E/DX2                !
 ! D22   D(5,1,9,25)           -56.2711         estimate D2E/DX2                !
 ! D23   D(6,1,9,8)              0.5031         estimate D2E/DX2                !
 ! D24   D(6,1,9,25)          -178.3537         estimate D2E/DX2                !
 ! D25   D(1,2,3,4)              1.1171         estimate D2E/DX2                !
 ! D26   D(1,2,3,21)          -177.9767         estimate D2E/DX2                !
 ! D27   D(18,2,3,4)          -179.8733         estimate D2E/DX2                !
 ! D28   D(18,2,3,21)            1.0328         estimate D2E/DX2                !
 ! D29   D(1,2,18,19)          177.1877         estimate D2E/DX2                !
 ! D30   D(1,2,18,79)           -0.8889         estimate D2E/DX2                !
 ! D31   D(3,2,18,19)           -1.6542         estimate D2E/DX2                !
 ! D32   D(3,2,18,79)         -179.7308         estimate D2E/DX2                !
 ! D33   D(2,3,4,5)             -1.4744         estimate D2E/DX2                !
 ! D34   D(2,3,4,14)           179.0136         estimate D2E/DX2                !
 ! D35   D(21,3,4,5)           177.5125         estimate D2E/DX2                !
 ! D36   D(21,3,4,14)           -1.9996         estimate D2E/DX2                !
 ! D37   D(2,3,21,20)            0.4614         estimate D2E/DX2                !
 ! D38   D(2,3,21,81)          179.8225         estimate D2E/DX2                !
 ! D39   D(4,3,21,20)         -178.4138         estimate D2E/DX2                !
 ! D40   D(4,3,21,81)            0.9474         estimate D2E/DX2                !
 ! D41   D(3,4,5,1)              1.2711         estimate D2E/DX2                !
 ! D42   D(3,4,5,17)          -177.9077         estimate D2E/DX2                !
 ! D43   D(14,4,5,1)          -179.1653         estimate D2E/DX2                !
 ! D44   D(14,4,5,17)            1.6559         estimate D2E/DX2                !
 ! D45   D(3,4,14,15)          179.2384         estimate D2E/DX2                !
 ! D46   D(3,4,14,82)           -0.4725         estimate D2E/DX2                !
 ! D47   D(5,4,14,15)           -0.2187         estimate D2E/DX2                !
 ! D48   D(5,4,14,82)         -179.9296         estimate D2E/DX2                !
 ! D49   D(1,5,17,16)          179.5357         estimate D2E/DX2                !
 ! D50   D(1,5,17,88)            0.4928         estimate D2E/DX2                !
 ! D51   D(4,5,17,16)           -1.4271         estimate D2E/DX2                !
 ! D52   D(4,5,17,88)          179.53           estimate D2E/DX2                !
 ! D53   D(1,6,7,8)              1.3616         estimate D2E/DX2                !
 ! D54   D(1,6,7,13)          -179.0894         estimate D2E/DX2                !
 ! D55   D(10,6,7,8)          -178.5697         estimate D2E/DX2                !
 ! D56   D(10,6,7,13)            0.9793         estimate D2E/DX2                !
 ! D57   D(1,6,10,11)          178.6            estimate D2E/DX2                !
 ! D58   D(1,6,10,89)            0.0333         estimate D2E/DX2                !
 ! D59   D(7,6,10,11)           -1.4797         estimate D2E/DX2                !
 ! D60   D(7,6,10,89)          179.9536         estimate D2E/DX2                !
 ! D61   D(6,7,8,9)             -0.9887         estimate D2E/DX2                !
 ! D62   D(6,7,8,22)           177.9992         estimate D2E/DX2                !
 ! D63   D(13,7,8,9)           179.5138         estimate D2E/DX2                !
 ! D64   D(13,7,8,22)           -1.4983         estimate D2E/DX2                !
 ! D65   D(6,7,13,12)            0.4576         estimate D2E/DX2                !
 ! D66   D(6,7,13,86)         -179.5786         estimate D2E/DX2                !
 ! D67   D(8,7,13,12)          179.8962         estimate D2E/DX2                !
 ! D68   D(8,7,13,86)           -0.14           estimate D2E/DX2                !
 ! D69   D(7,8,9,1)              0.252          estimate D2E/DX2                !
 ! D70   D(7,8,9,25)           179.1933         estimate D2E/DX2                !
 ! D71   D(22,8,9,1)          -178.8303         estimate D2E/DX2                !
 ! D72   D(22,8,9,25)            0.111          estimate D2E/DX2                !
 ! D73   D(7,8,22,23)         -177.3334         estimate D2E/DX2                !
 ! D74   D(7,8,22,84)            1.3202         estimate D2E/DX2                !
 ! D75   D(9,8,22,23)            1.5394         estimate D2E/DX2                !
 ! D76   D(9,8,22,84)         -179.807          estimate D2E/DX2                !
 ! D77   D(1,9,25,24)          176.7585         estimate D2E/DX2                !
 ! D78   D(1,9,25,78)            0.0588         estimate D2E/DX2                !
 ! D79   D(8,9,25,24)           -1.9952         estimate D2E/DX2                !
 ! D80   D(8,9,25,78)         -178.6949         estimate D2E/DX2                !
 ! D81   D(6,10,11,12)           0.576          estimate D2E/DX2                !
 ! D82   D(6,10,11,26)        -179.3013         estimate D2E/DX2                !
 ! D83   D(89,10,11,12)        179.1238         estimate D2E/DX2                !
 ! D84   D(89,10,11,26)         -0.7535         estimate D2E/DX2                !
 ! D85   D(10,11,12,13)          0.8386         estimate D2E/DX2                !
 ! D86   D(10,11,12,87)        179.1554         estimate D2E/DX2                !
 ! D87   D(26,11,12,13)       -179.2849         estimate D2E/DX2                !
 ! D88   D(26,11,12,87)         -0.9682         estimate D2E/DX2                !
 ! D89   D(10,11,26,34)        -35.7932         estimate D2E/DX2                !
 ! D90   D(10,11,26,35)        144.4818         estimate D2E/DX2                !
 ! D91   D(12,11,26,34)        144.3296         estimate D2E/DX2                !
 ! D92   D(12,11,26,35)        -35.3954         estimate D2E/DX2                !
 ! D93   D(11,12,13,7)          -1.3395         estimate D2E/DX2                !
 ! D94   D(11,12,13,86)        178.6961         estimate D2E/DX2                !
 ! D95   D(87,12,13,7)        -179.6684         estimate D2E/DX2                !
 ! D96   D(87,12,13,86)          0.3672         estimate D2E/DX2                !
 ! D97   D(4,14,15,16)          -1.3916         estimate D2E/DX2                !
 ! D98   D(4,14,15,83)        -179.3656         estimate D2E/DX2                !
 ! D99   D(82,14,15,16)        178.3233         estimate D2E/DX2                !
 ! D100  D(82,14,15,83)          0.3493         estimate D2E/DX2                !
 ! D101  D(14,15,16,17)          1.5939         estimate D2E/DX2                !
 ! D102  D(14,15,16,27)       -177.9807         estimate D2E/DX2                !
 ! D103  D(83,15,16,17)        179.5541         estimate D2E/DX2                !
 ! D104  D(83,15,16,27)         -0.0204         estimate D2E/DX2                !
 ! D105  D(15,16,17,5)          -0.182          estimate D2E/DX2                !
 ! D106  D(15,16,17,88)        178.8468         estimate D2E/DX2                !
 ! D107  D(27,16,17,5)         179.3926         estimate D2E/DX2                !
 ! D108  D(27,16,17,88)         -1.5786         estimate D2E/DX2                !
 ! D109  D(15,16,27,36)        -35.2781         estimate D2E/DX2                !
 ! D110  D(15,16,27,37)        147.5736         estimate D2E/DX2                !
 ! D111  D(17,16,27,36)        145.1499         estimate D2E/DX2                !
 ! D112  D(17,16,27,37)        -31.9984         estimate D2E/DX2                !
 ! D113  D(2,18,19,20)           0.7805         estimate D2E/DX2                !
 ! D114  D(2,18,19,28)        -178.7791         estimate D2E/DX2                !
 ! D115  D(79,18,19,20)        178.832          estimate D2E/DX2                !
 ! D116  D(79,18,19,28)         -0.7275         estimate D2E/DX2                !
 ! D117  D(18,19,20,21)          0.6903         estimate D2E/DX2                !
 ! D118  D(18,19,20,80)        179.2912         estimate D2E/DX2                !
 ! D119  D(28,19,20,21)       -179.7559         estimate D2E/DX2                !
 ! D120  D(28,19,20,80)         -1.155          estimate D2E/DX2                !
 ! D121  D(18,19,28,31)        -33.8575         estimate D2E/DX2                !
 ! D122  D(18,19,28,33)        145.9916         estimate D2E/DX2                !
 ! D123  D(20,19,28,31)        146.5955         estimate D2E/DX2                !
 ! D124  D(20,19,28,33)        -33.5554         estimate D2E/DX2                !
 ! D125  D(19,20,21,3)          -1.3101         estimate D2E/DX2                !
 ! D126  D(19,20,21,81)        179.3312         estimate D2E/DX2                !
 ! D127  D(80,20,21,3)        -179.9391         estimate D2E/DX2                !
 ! D128  D(80,20,21,81)          0.7022         estimate D2E/DX2                !
 ! D129  D(8,22,23,24)          -1.3085         estimate D2E/DX2                !
 ! D130  D(8,22,23,85)         178.9822         estimate D2E/DX2                !
 ! D131  D(84,22,23,24)       -179.9596         estimate D2E/DX2                !
 ! D132  D(84,22,23,85)          0.3311         estimate D2E/DX2                !
 ! D133  D(22,23,24,25)         -0.5225         estimate D2E/DX2                !
 ! D134  D(22,23,24,29)        176.548          estimate D2E/DX2                !
 ! D135  D(85,23,24,25)        179.181          estimate D2E/DX2                !
 ! D136  D(85,23,24,29)         -3.7485         estimate D2E/DX2                !
 ! D137  D(23,24,25,9)           2.1559         estimate D2E/DX2                !
 ! D138  D(23,24,25,78)        178.822          estimate D2E/DX2                !
 ! D139  D(29,24,25,9)        -174.8996         estimate D2E/DX2                !
 ! D140  D(29,24,25,78)          1.7666         estimate D2E/DX2                !
 ! D141  D(23,24,29,30)        -32.255          estimate D2E/DX2                !
 ! D142  D(23,24,29,32)        147.3527         estimate D2E/DX2                !
 ! D143  D(25,24,29,30)        144.7484         estimate D2E/DX2                !
 ! D144  D(25,24,29,32)        -35.6439         estimate D2E/DX2                !
 ! D145  D(11,26,34,43)        139.8404         estimate D2E/DX2                !
 ! D146  D(11,26,34,47)        -40.4348         estimate D2E/DX2                !
 ! D147  D(35,26,34,43)        -40.4321         estimate D2E/DX2                !
 ! D148  D(35,26,34,47)        139.2927         estimate D2E/DX2                !
 ! D149  D(11,26,35,48)        139.4528         estimate D2E/DX2                !
 ! D150  D(11,26,35,52)        -40.482          estimate D2E/DX2                !
 ! D151  D(34,26,35,48)        -40.2749         estimate D2E/DX2                !
 ! D152  D(34,26,35,52)        139.7904         estimate D2E/DX2                !
 ! D153  D(16,27,36,38)        141.9861         estimate D2E/DX2                !
 ! D154  D(16,27,36,42)        -39.5805         estimate D2E/DX2                !
 ! D155  D(37,27,36,38)        -40.8213         estimate D2E/DX2                !
 ! D156  D(37,27,36,42)        137.612          estimate D2E/DX2                !
 ! D157  D(16,27,37,53)        135.805          estimate D2E/DX2                !
 ! D158  D(16,27,37,57)        -44.7039         estimate D2E/DX2                !
 ! D159  D(36,27,37,53)        -41.4155         estimate D2E/DX2                !
 ! D160  D(36,27,37,57)        138.0756         estimate D2E/DX2                !
[...]
 Alpha virt. eigenvalues --    2.32930   2.33052   2.33618   2.34115   2.34384
 Alpha virt. eigenvalues --    2.34644   2.35048   2.35616   2.35687   2.35915
 Alpha virt. eigenvalues --    2.36208   2.36321   2.36705   2.36922   2.37040
 Alpha virt. eigenvalues --    2.37188   2.37249   2.37344   2.37551   2.37773
 Alpha virt. eigenvalues --    2.38062   2.39305   2.39991   2.40120   2.40706
 Alpha virt. eigenvalues --    2.41068   2.42212   2.42526   2.42748   2.42977
 Alpha virt. eigenvalues --    2.43464   2.44128   2.45570   2.45765   2.47234
 Alpha virt. eigenvalues --    2.49024   2.49735   2.50638   2.51098   2.51623
 Alpha virt. eigenvalues --    2.51760   2.52056   2.52627   2.52669   2.53349
 Alpha virt. eigenvalues --    2.53550   2.53860   2.54276   2.54940   2.55074
 Alpha virt. eigenvalues --    2.55645   2.55771   2.55947   2.56152   2.56743
 Alpha virt. eigenvalues --    2.57109   2.57199   2.57856   2.58022   2.58157
 Alpha virt. eigenvalues --    2.58465   2.58747   2.58939   2.59247   2.59800
 Alpha virt. eigenvalues --    2.60439   2.60897   2.61637   2.62184   2.62336
 Alpha virt. eigenvalues --    2.62740   2.62992   2.63322   2.63806   2.63946
 Alpha virt. eigenvalues --    2.64306   2.64646   2.65336   2.65876   2.66182
 Alpha virt. eigenvalues --    2.66413   2.66622   2.66682   2.66829   2.67030
 Alpha virt. eigenvalues --    2.67129   2.67370   2.67415   2.67761   2.68016
 Alpha virt. eigenvalues --    2.68167   2.68270   2.68542   2.69040   2.69447
 Alpha virt. eigenvalues --    2.69685   2.70002   2.70332   2.70517   2.70572
 Alpha virt. eigenvalues --    2.71260   2.71388   2.71538   2.71831   2.72893
 Alpha virt. eigenvalues --    2.73632   2.73810   2.74309   2.74754   2.75259
 Alpha virt. eigenvalues --    2.75736   2.76603   2.77052   2.77237   2.77621
 Alpha virt. eigenvalues --    2.78388   2.79474   2.80096   2.80783   2.81377
 Alpha virt. eigenvalues --    2.81450   2.82114   2.82700   2.82835   2.82998
 Alpha virt. eigenvalues --    2.83076   2.83481   2.83664   2.84278   2.84441
 Alpha virt. eigenvalues --    2.85444   2.86151   2.86432   2.87302   2.87864
 Alpha virt. eigenvalues --    2.88476   2.88898   2.89532   2.91015   2.91140
 Alpha virt. eigenvalues --    2.91228   2.91557   2.92411   2.92737   2.93212
 Alpha virt. eigenvalues --    2.93940   2.96075   2.97447   2.97916   2.98639
 Alpha virt. eigenvalues --    2.98864   2.99227   2.99637   2.99746   2.99959
 Alpha virt. eigenvalues --    3.00078   3.00571   3.00798   3.01722   3.01812
 Alpha virt. eigenvalues --    3.02851   3.03821   3.04504   3.06305   3.07262
 Alpha virt. eigenvalues --    3.09318   3.09659   3.10454   3.11006   3.13778
 Alpha virt. eigenvalues --    3.14803   3.16426   3.18580   3.22147   3.22575
 Alpha virt. eigenvalues --    3.24884   3.25142   3.26214   3.26305   3.26967
 Alpha virt. eigenvalues --    3.28418   3.32911   3.33229   3.37316   3.38871
 Alpha virt. eigenvalues --    3.43409   3.43507   3.43767   3.43839   3.44757
 Alpha virt. eigenvalues --    3.44856   3.45057   3.45131   3.52941   3.53154
 Alpha virt. eigenvalues --    4.05479   4.05506   4.05722   4.05764   4.05937
 Alpha virt. eigenvalues --    4.05984   4.07065   4.07477   4.09727   4.09945
 Alpha virt. eigenvalues --    4.10065   4.10205   4.10731   4.11001   4.11149
 Alpha virt. eigenvalues --    4.11429   4.11675   4.12362   4.13810   4.14092
 Alpha virt. eigenvalues --    4.15316   4.15794   4.16474   4.16772   4.17246
 Alpha virt. eigenvalues --    4.17832   4.18121   4.18317   4.18486   4.18644
 Alpha virt. eigenvalues --    4.18913   4.19384   4.19594   4.19929   4.20756
 Alpha virt. eigenvalues --    4.20983   4.21095   4.21495   4.21534   4.21888
 Alpha virt. eigenvalues --    4.22446   4.23522   4.23606   4.24231   4.25013
 Alpha virt. eigenvalues --    4.25338   4.26432   4.28527   4.32186   4.32341
 Alpha virt. eigenvalues --    4.32681   4.33777   4.33984   4.34499   4.34777
 Alpha virt. eigenvalues --    4.35254   4.35713   4.36677   4.37114   4.37378
 Alpha virt. eigenvalues --    4.37679   4.38769   4.39089   4.39738   4.40163
 Alpha virt. eigenvalues --    4.40521   4.41578   4.43172   4.47038   4.50002
 Alpha virt. eigenvalues --    4.51572   4.51856   4.52468   4.52622   4.53604
 Alpha virt. eigenvalues --    4.54429   4.55903   4.56000   4.57384   4.58144
 Alpha virt. eigenvalues --    4.64361   4.76376   4.76590   4.77023   4.77436
 Alpha virt. eigenvalues --    4.78063   4.78153   4.78468   4.80238   4.86017
 Alpha virt. eigenvalues --    4.86088   4.90292   4.91376
          Condensed to atoms (all electrons):
 Mulliken atomic charges:
              1
     1  C   -0.271399
     2  C    0.126083
     3  C    0.072222
     4  C    0.074304
     5  C    0.117119
     6  C    0.119624
     7  C    0.074958
     8  C    0.072253
     9  C    0.125547
    10  C   -0.239465
    11  C    0.286692
    12  C   -0.176799
    13  C   -0.205755
    14  C   -0.204337
    15  C   -0.174402
    16  C    0.291985
    17  C   -0.241803
    18  C   -0.255606
    19  C    0.320222
    20  C   -0.191011
    21  C   -0.205612
    22  C   -0.202401
    23  C   -0.186910
    24  C    0.315785
    25  C   -0.258798
    26  N   -0.665280
    27  N   -0.665759
    28  N   -0.658616
    29  N   -0.666434
    30  C    0.249552
    31  C    0.186571
    32  C    0.290350
    33  C    0.315791
    34  C    0.293585
    35  C    0.281674
    36  C    0.276617
    37  C    0.293671
    38  C   -0.160023
    39  C   -0.146584
    40  C   -0.198378
    41  C    0.377059
    42  C   -0.222973
    43  C   -0.226927
    44  C    0.378923
    45  C   -0.199822
    46  C   -0.154255
    47  C   -0.175176
    48  C   -0.220542
    49  C    0.377957
    50  C   -0.198384
    51  C   -0.147520
    52  C   -0.167739
    53  C   -0.229229
    54  C    0.378712
    55  C   -0.200487
    56  C   -0.155085
    57  C   -0.175772
    58  C   -0.155067
    59  C   -0.151224
    60  C   -0.128770
    61  C   -0.208889
    62  C    0.376561
    63  C   -0.244189
    64  C    0.373905
    65  C   -0.174471
    66  C   -0.141457
    67  C   -0.184950
    68  C   -0.249744
    69  C    0.378260
    70  C   -0.173204
    71  C   -0.141974
    72  C   -0.176242
    73  C   -0.162119
    74  C   -0.144939
    75  C   -0.170236
    76  C    0.376205
    77  C   -0.229795
    78  H    0.156704
    79  H    0.149251
    80  H    0.142553
    81  H    0.128685
    82  H    0.128283
    83  H    0.140995
    84  H    0.127294
    85  H    0.142192
    86  H    0.127926
    87  H    0.140820
    88  H    0.152490
    89  H    0.151452
    90  H    0.132625
    91  H    0.130156
    92  H    0.127119
    93  H    0.127931
    94  O   -0.507690
    95  H    0.153744
    96  H    0.148215
    97  O   -0.510479
    98  H    0.129270
    99  H    0.138395
   100  H    0.136501
   101  H    0.146597
   102  H    0.141779
   103  H    0.129271
   104  O   -0.515414
   105  H    0.148441
   106  O   -0.512694
   107  H    0.149619
   108  H    0.126406
   109  H    0.131702
   110  O   -0.501353
   111  H    0.127305
   112  H    0.146045
   113  H    0.144281
   114  H    0.133099
   115  O   -0.510761
   116  H    0.143568
   117  O   -0.509681
   118  H    0.151486
   119  H    0.135161
   120  H    0.146161
   121  H    0.142750
   122  H    0.122984
   123  O   -0.508736
   124  H    0.150339
   125  H    0.130803
   126  H    0.126839
   127  H    0.127202
   128  H    0.134836
   129  C   -0.214827
   130  H    0.153949
   131  H    0.155280
   132  H    0.165924
   133  H    0.134790
   134  C   -0.218565
   135  H    0.154938
   136  H    0.176630
   137  H    0.152139
   138  C   -0.221476
   139  C   -0.215506
   140  H    0.168139
   141  H    0.157277
   142  H    0.151637
   143  H    0.169081
   144  H    0.170371
   145  H    0.146247
   146  C   -0.212981
   147  H    0.168800
   148  H    0.150811
   149  H    0.149880
   150  C   -0.212862
   151  H    0.167578
   152  H    0.151555
   153  H    0.149761
   154  C   -0.213241
   155  C   -0.213173
   156  H    0.168819
   157  H    0.150237
   158  H    0.150971
   159  H    0.167290
   160  H    0.151237
   161  H    0.151190
 Sum of Mulliken atomic charges =   0.00000
 Mulliken charges with hydrogens summed into heavy atoms:
              1
     1  C   -0.271399
     2  C    0.126083
     3  C    0.072222
     4  C    0.074304
     5  C    0.117119
     6  C    0.119624
     7  C    0.074958
     8  C    0.072253
     9  C    0.125547
    10  C   -0.088013
    11  C    0.286692
    12  C   -0.035979
    13  C   -0.077829
    14  C   -0.076054
    15  C   -0.033406
    16  C    0.291985
    17  C   -0.089313
    18  C   -0.106355
    19  C    0.320222
    20  C   -0.048458
    21  C   -0.076928
    22  C   -0.075107
    23  C   -0.044718
    24  C    0.315785
    25  C   -0.102093
    26  N   -0.665280
    27  N   -0.665759
    28  N   -0.658616
    29  N   -0.666434
    30  C    0.249552
    31  C    0.186571
    32  C    0.290350
    33  C    0.315791
    34  C    0.293585
    35  C    0.281674
    36  C    0.276617
    37  C    0.293671
    38  C   -0.021629
    39  C   -0.017314
    40  C   -0.071259
    41  C    0.377059
    42  C   -0.069228
    43  C   -0.078712
    44  C    0.378923
    45  C   -0.071891
    46  C   -0.017754
    47  C   -0.028579
    48  C   -0.070203
    49  C    0.377957
    50  C   -0.071545
    51  C   -0.024536
    52  C   -0.024989
    53  C   -0.077744
    54  C    0.378712
    55  C   -0.073285
    56  C   -0.019924
    57  C   -0.029611
    58  C   -0.009022
    59  C   -0.023920
    60  C    0.002033
    61  C   -0.074099
    62  C    0.376561
    63  C   -0.094570
    64  C    0.373905
    65  C   -0.044315
    66  C   -0.015051
    67  C   -0.053248
    68  C   -0.101303
    69  C    0.378260
    70  C   -0.040579
    71  C   -0.012703
    72  C   -0.034463
    73  C   -0.017838
    74  C   -0.011840
    75  C   -0.035401
    76  C    0.376205
    77  C   -0.086227
    94  O   -0.507690
    97  O   -0.510479
   104  O   -0.515414
   106  O   -0.512694
   110  O   -0.501353
   115  O   -0.510761
   117  O   -0.509681
   123  O   -0.508736
   129  C    0.260326
   134  C    0.265142
   138  C    0.264223
   139  C    0.261547
   146  C    0.256511
   150  C    0.256032
   154  C    0.256476
   155  C    0.256853
 Sum of Mulliken charges with hydrogens summed into heavy atoms =   0.00000
 Electronic spatial extent (au):  <R**2>=         101924.7568
 Charge=              0.0000 electrons
 Dipole moment (field-independent basis, Debye):
    X=             -2.0361    Y=              1.2587    Z=              1.9091  Tot=              3.0618
 Quadrupole moment (field-independent basis, Debye-Ang):
   XX=           -481.5119   YY=           -487.5496   ZZ=           -498.0584
   XY=             -3.4878   XZ=            -24.6997   YZ=            -20.6137
 Traceless Quadrupole moment (field-independent basis, Debye-Ang):
   XX=              7.5281   YY=              1.4904   ZZ=             -9.0184
   XY=             -3.4878   XZ=            -24.6997   YZ=            -20.6137
 Octapole moment (field-independent basis, Debye-Ang**2):
  XXX=           -180.0828  YYY=            118.4898  ZZZ=              3.4559  XYY=             63.0164
  XXY=            119.6664  XXZ=             33.7875  XZZ=            -64.7176  YZZ=            149.8083
  YYZ=            121.0557  XYZ=             44.1167
 Hexadecapole moment (field-independent basis, Debye-Ang**3):
 XXXX=         -61360.6155 YYYY=         -46071.8593 ZZZZ=         -20471.6615 XXXY=           -714.3115
 XXXZ=          -3184.9934 YYYX=           -322.1197 YYYZ=           -176.5948 ZZZX=           -737.6672
 ZZZY=           -115.7274 XXYY=         -17911.8385 XXZZ=         -12795.4901 YYZZ=         -10737.6425
 XXYZ=           -954.3972 YYXZ=            380.4750 ZZXY=             48.8070
 N-N= 1.663916215380D+04 E-N=-4.245137347440D+04  KE= 3.911088880430D+03
 Leave Link  601 at Tue Jan 20 03:25:04 2015, MaxMem= 2147483648 cpu:      50.3
 (Enter /opt/g09/l9999.exe)
 1\1\GINC-CHPC-SCANDIUM\FOpt\RB3LYP\6-31G(d)\C81H68N4O8\JARVIST\20-Jan-
 2015\0\\#p opt b3lyp/6-31g*\\Auto Spiro\\0,1\C,12.5409914772,11.866356
 7766,12.7120665255\C,11.217611796,11.19302216,12.3195077107\C,11.42403
 17756,9.8302518022,12.0353175075\C,12.8493715028,9.5272419564,12.18677
 50491\C,13.5256065384,10.7046846141,12.5631717166\C,12.8431052865,13.0
 99768251,11.8558169448\C,12.8942908301,14.2573258464,12.6575545505\C,1
 2.6881348511,13.8709698162,14.0551989346\C,12.5170958106,12.47519138,1
 4.1199517276\C,13.0012078272,13.1662602486,10.4809107746\C,13.24655861
 7,14.4135960453,9.876767448\C,13.3190100803,15.5675319759,10.679569777
 4\C,13.1320703226,15.4969291227,12.0586004757\C,13.5750331381,8.346287
 4962,12.0115557822\C,14.9544764395,8.3535791249,12.2057913091\C,15.627
 2045018,9.5257169042,12.6002172761\C,14.893590458,10.7127621172,12.784
 6278104\C,9.9711393539,11.7836888903,12.1837245225\C,8.8771432111,11.0
 005489316,11.7645383198\C,9.0725076651,9.6214039016,11.5372109125\C,10
 .3340013115,9.0423144883,11.6562444649\C,12.6658637397,14.6147471859,1
 5.2371766983\C,12.4999772927,13.9633788147,16.4563903486\C,12.39135818
 16,12.5586238311,16.5275135349\C,12.3888860476,11.8134310381,15.330923
 9927\N,13.411635485,14.5131380645,8.467767588\N,17.0325978589,9.504076
 2251,12.8119292217\N,7.6029479354,11.5878474346,11.5789023478\N,12.309
 1592698,11.9223725097,17.7909621709\C,12.9881387893,12.4914960724,18.9
 119762787\C,7.2357043093,12.7332898925,12.3462930948\C,11.6730541938,1
 0.6608385275,17.9622873988\C,6.7081961665,11.144269372,10.5660662887\C
 ,14.1528866796,13.5274614796,7.7624936455\C,12.7995391791,15.586115684
 2,7.7636236215\C,17.6311777814,8.3957267123,13.4749502244\C,17.8365973
 329,10.6048683052,12.4143679552\C,18.8287705842,7.8409013047,12.986940
 9287\C,19.3997325207,6.7591005828,13.6453633794\C,18.8031107019,6.1926
 033906,14.7767877178\C,17.6079756815,6.7431520876,15.253717261\C,17.03
 19513642,7.8465463273,14.6111761885\C,13.7081343235,13.0688753754,6.51
 89771521\C,14.4413036765,12.1096524355,5.8100522564\C,15.618711171,11.
 5790669284,6.3485842482\C,16.0460571991,12.0337041057,7.6004496975\C,1
 5.3395207448,12.9998512999,8.3068230831\C,13.5010234402,16.2587471472,
 6.7593073468\C,12.9002340227,17.3078344433,6.0530075437\C,11.595959013
 1,17.7118901341,6.3615718048\C,10.90850936,17.0394565152,7.3773370126\
 C,11.4849836844,15.9834094951,8.0724097621\C,18.8877270749,11.03829560
 14,13.2280417048\C,19.6991163485,12.1091164918,12.8333026817\C,19.4536
 001601,12.7765670043,11.6284417469\C,18.3897986122,12.3440859404,10.82
 93975161\C,17.588733983,11.2701437107,11.1976270584\C,7.0498039506,12.
 6348098937,13.7258629643\C,6.6952746687,13.7467472216,14.4916826251\C,
 6.5080507308,14.9751018085,13.8627407261\C,6.6866268322,15.1001641775,
 12.4823085253\C,7.0631375838,13.9903287607,11.71777312\C,7.1969791928,
 10.7369930404,9.3116341602\C,6.3090175498,10.3098084904,8.3234883652\C
 ,4.9260075635,10.3053558027,8.5642884488\C,4.4540093604,10.7278666299,
 9.8005011991\C,5.3297997758,11.139408022,10.8082444356\C,10.4388655979
 ,10.3953923691,17.3405068176\C,9.8222009344,9.1541901358,17.5218732626
 \C,10.4091319795,8.1818424945,18.3452477393\C,11.6218824552,8.45997818
 96,18.9630443508\C,12.2662518253,9.6832478546,18.7719551689\C,14.32773
 97486,12.8826014455,18.8189026568\C,14.9592512851,13.4357656157,19.935
 6843252\C,14.284561235,13.585935018,21.1417109363\C,12.9435859228,13.1
 83280149,21.2361966606\C,12.2921334048,12.6475162823,20.1225222787\H,1
 2.3080162064,10.7322948842,15.3619653111\H,9.8392757123,12.8441897477,
 12.3709152866\H,8.2257205612,9.0092033644,11.2462444638\H,10.456144603
 5,7.9805519734,11.4565235694\H,13.0796751075,7.4265047975,11.710979692
 4\H,15.5260524268,7.443390851,12.0567664047\H,12.7733821944,15.6964568
 609,15.2185343053\H,12.477065372,14.5414778461,17.3735530695\H,13.1907
 73809,16.403007567,12.6564443432\H,13.5218181639,16.5241438448,10.2090
 185933\H,15.4010182139,11.6196825352,13.0973790466\H,12.9348836147,12.
 2721153134,9.8692334108\H,9.9047001978,7.2296549139,18.4718325622\H,4.
 2574488959,9.971694666,7.7775369676\H,19.2666224503,5.3424676065,15.26
 29185334\H,16.1976946077,10.8323102788,5.818570852\O,16.929083008,6.28
 96980943,16.3497652948\H,16.1137417145,8.2611877528,15.0118972008\H,12
 .7925850703,13.4487645035,6.0802617549\O,13.9076629983,11.7459344417,4
 .6047372161\H,20.3238255632,6.3310150232,13.2655981857\H,19.2944838953
 ,8.2607412547,12.1020926935\H,16.9627186911,11.6291893491,8.0219130591
 \H,15.6927312324,13.3481108356,9.271151212\H,13.2232781694,9.880824389
 7,19.241361753\H,12.0880372747,7.705556986,19.5913215761\O,8.631646591
 3,8.7987360812,16.9544183454\H,9.9851948552,11.160916293,16.723824462\
 O,6.6921249777,9.8943207638,7.0786380142\H,8.2624030924,10.7761907817,
 9.1273717859\H,3.3843830875,10.7238601185,9.9939595206\H,4.9503250809,
 11.451090712,11.7753371102\O,7.294211389,14.0219921259,10.3777895502\H
 ,6.5557629481,13.6484353744,15.5641763324\H,7.1855406052,11.6623212774
 ,14.1884943244\H,14.8636790945,12.7529951943,17.8848945312\H,16.000591
 4195,13.7383368805,19.8647561858\O,12.3548289287,13.3689009668,22.4547
 237094\H,11.2545898069,12.3410310154,20.1681048064\O,20.6972357004,12.
 4337492582,13.7095946477\H,19.0939747432,10.5544736096,14.1758768759\H
 ,18.1972571092,12.8552909616,9.8895116658\H,16.7761804468,10.943085420
 7,10.5583557965\H,10.9330516594,15.4598923189,8.8453952887\H,9.8921655
 511,17.3430582517,7.615700581\O,13.6826037789,17.8834691918,5.09136735
 83\H,14.5173055354,15.9772801971,6.5076566046\H,6.2239966186,15.849584
 6097,14.4417289389\H,11.1158556772,18.5249523808,5.8303185863\H,20.065
 086704,13.6116899521,11.3086616119\H,14.7674983552,14.0040520065,22.01
 888905\C,8.0775519714,9.8693210239,6.7746375088\H,8.6288427097,9.20369
 65488,7.4518742742\H,8.5211063659,10.8727400183,6.8207041833\H,8.15305
 18982,9.4894082512,5.7539009779\H,6.5485285428,16.0669937697,12.011854
 4023\C,7.0954539795,15.2429638291,9.6840000781\H,6.057809969,15.590935
 6389,9.7696608407\H,7.3192764017,15.0285347431,8.6376785857\H,7.771449
 8512,16.0283708119,10.0479551555\C,8.0336827021,9.6906533806,16.028580
 1918\C,11.0056026537,12.9623763407,22.6189209354\H,10.751199133,13.183
 4650298,23.6572607523\H,10.8818765096,11.8869732338,22.4354872004\H,10
 .3312758195,13.5195769668,21.9549018248\H,7.1343947019,9.187669838,15.
 6673100572\H,8.6996992961,9.8986849133,15.1812310435\H,7.7490006039,10
 .6384686558,16.5062483992\C,17.4765783284,5.2008376526,17.0735471028\H
 ,16.7899256086,5.0167416932,17.9020507416\H,18.4712573315,5.4395733303
 ,17.4733879191\H,17.5465308485,4.2962606211,16.4545121305\C,21.5350521
 781,13.5320821841,13.3920335906\H,22.2412695441,13.6193678174,14.22004
 9534\H,20.9633858573,14.465652889,13.303587213\H,22.0903907229,13.3620
 977818,12.4597973396\C,14.5843931718,10.7589676669,3.8448318082\C,13.1
 474723009,18.9687797689,4.3529511926\H,13.9313551485,19.2723127088,3.6
 563745798\H,12.8936570268,19.8163075842,5.0038312875\H,12.2550194316,1
 8.6720519612,3.7857574736\H,13.990799129,10.6187894977,2.9393022216\H,
 14.6505960067,9.8055393442,4.3859344402\H,15.5958324449,11.0844523574,
 3.5670141654\\Version=EM64L-G09RevA.02\State=1-A\HF=-3948.2986613\RMSD
 =8.781e-09\RMSF=2.276e-06\Dipole=0.3119131,0.9423522,-0.6824563\Quadru
 pole=-6.5135902,6.792401,-0.2788108,-19.0931852,-8.1971512,-11.896178\
 PG=C01 [X(C81H68N4O8)]\\@


 WE THE UNWILLING
 LED BY THE UNQUALIFIED
 HAVE BEEN DOING THE UNBELIEVABLE SO LONG WITH SO LITTLE
 THAT WE NOW ATTEMPT THE IMPOSSIBLE WITH NOTHING.

                                    -- ANONYMOUS
 Job cpu time:  5 days 16 hours 44 minutes 28.6 seconds.
 File lengths (MBytes):  RWF=   1450 Int=      0 D2E=      0 Chk=    144 Scr=      1
 Normal termination of Gaussian 09 at Tue Jan 20 03:25:05 2015.
