 Entering Gaussian System, Link 0=g09
 Input=b3lyp-631gs_opt/HF_11.com
 Output=b3lyp-631gs_opt/HF_11.log
 Initial command:
 /opt/g09/l1.exe /home/jarvist/super_spiro/Gau-7197.inp -scrdir=/home/jarvist/super_spiro/
 Default is to use a total of   8 processors:
                                8 via shared-memory
                                1 via Linda
 Entering Link 1 = /opt/g09/l1.exe PID=      7199.
  
 Copyright (c) 1988,1990,1992,1993,1995,1998,2003,2009, Gaussian, Inc.
                  All Rights Reserved.
  
 This is part of the Gaussian(R) 09 program.  It is based on
 the Gaussian(R) 03 system (copyright 2003, Gaussian, Inc.),
 the Gaussian(R) 98 system (copyright 1998, Gaussian, Inc.),
 the Gaussian(R) 94 system (copyright 1995, Gaussian, Inc.),
 the Gaussian 92(TM) system (copyright 1992, Gaussian, Inc.),
 the Gaussian 90(TM) system (copyright 1990, Gaussian, Inc.),
 the Gaussian 88(TM) system (copyright 1988, Gaussian, Inc.),
 the Gaussian 86(TM) system (copyright 1986, Carnegie Mellon
 University), and the Gaussian 82(TM) system (copyright 1983,
 Carnegie Mellon University). Gaussian is a federally registered
 trademark of Gaussian, Inc.
  
 This software contains proprietary and confidential information,
 including trade secrets, belonging to Gaussian, Inc.
  
 This software is provided under written license and may be
 used, copied, transmitted, or stored only in accord with that
 written license.
  
 The following legend is applicable only to US Government
 contracts under FAR:
  
                    RESTRICTED RIGHTS LEGEND
  
 Use, reproduction and disclosure by the US Government is
 subject to restrictions as set forth in subparagraphs (a)
 and (c) of the Commercial Computer Software - Restricted
 Rights clause in FAR 52.227-19.
  
 Gaussian, Inc.
 340 Quinnipiac St., Bldg. 40, Wallingford CT 06492
  
  
 ---------------------------------------------------------------
 Warning -- This program may not be used in any manner that
 competes with the business of Gaussian, Inc. or will provide
 assistance to any competitor of Gaussian, Inc.  The licensee
 of this program is prohibited from giving any competitor of
 Gaussian, Inc. access to this program.  By using this program,
 the user acknowledges that Gaussian, Inc. is engaged in the
 business of creating and licensing software in the field of
 computational chemistry and represents and warrants to the
 licensee that it is not a competitor of Gaussian, Inc. and that
 it will not use this program in any manner prohibited above.
 ---------------------------------------------------------------
  

 Cite this work as:
 Gaussian 09, Revision A.02,
 M. J. Frisch, G. W. Trucks, H. B. Schlegel, G. E. Scuseria, 
 M. A. Robb, J. R. Cheeseman, G. Scalmani, V. Barone, B. Mennucci, 
 G. A. Petersson, H. Nakatsuji, M. Caricato, X. Li, H. P. Hratchian, 
 A. F. Izmaylov, J. Bloino, G. Zheng, J. L. Sonnenberg, M. Hada, 
 M. Ehara, K. Toyota, R. Fukuda, J. Hasegawa, M. Ishida, T. Nakajima, 
 Y. Honda, O. Kitao, H. Nakai, T. Vreven, J. A. Montgomery, Jr., 
 J. E. Peralta, F. Ogliaro, M. Bearpark, J. J. Heyd, E. Brothers, 
 K. N. Kudin, V. N. Staroverov, R. Kobayashi, J. Normand, 
 K. Raghavachari, A. Rendell, J. C. Burant, S. S. Iyengar, J. Tomasi, 
 M. Cossi, N. Rega, J. M. Millam, M. Klene, J. E. Knox, J. B. Cross, 
 V. Bakken, C. Adamo, J. Jaramillo, R. Gomperts, R. E. Stratmann, 
 O. Yazyev, A. J. Austin, R. Cammi, C. Pomelli, J. W. Ochterski, 
 R. L. Martin, K. Morokuma, V. G. Zakrzewski, G. A. Voth, 
 P. Salvador, J. J. Dannenberg, S. Dapprich, A. D. Daniels, 
 O. Farkas, J. B. Foresman, J. V. Ortiz, J. Cioslowski, 
 and D. J. Fox, Gaussian, Inc., Wallingford CT, 2009.
 
 ******************************************
 Gaussian 09:  EM64L-G09RevA.02 11-Jun-2009
                 6-Aug-2014 
 ******************************************
 %mem=16GB
 %nprocs=24
 Will use up to   24 processors via shared memory.
 Default route:  MaxDisk=100GB
 -------------------
 #p opt b3lyp/6-31g*
 -------------------
 1/14=-1,18=20,19=15,26=3,38=1/1,3;
 2/9=110,12=2,17=6,18=5,40=1/2;
 3/5=1,6=6,7=1,11=2,16=1,25=1,30=1,71=1,74=-5/1,2,3;
 4//1;
 5/5=2,38=5/2;
 6/7=2,8=2,9=2,10=2,28=1/1;
 7//1,2,3,16;
 1/14=-1,18=20,19=15/3(2);
 2/9=110/2;
 99//99;
 2/9=110/2;
 3/5=1,6=6,7=1,11=2,16=1,25=1,30=1,71=1,74=-5/1,2,3;
 4/5=5,16=3/1;
 5/5=2,38=5/2;
 7//1,2,3,16;
 1/14=-1,18=20,19=15/3(-5);
 2/9=110/2;
 6/7=2,8=2,9=2,10=2,19=2,28=1/1;
 99/9=1/99;
 Leave Link    1 at Wed Aug  6 17:04:09 2014, MaxMem= 2147483648 cpu:       1.6
 (Enter /opt/g09/l101.exe)
 ----------
 Auto Spiro
 ----------
 Symbolic Z-matrix:
 Charge =  0 Multiplicity = 1
 C                     12.63612   11.91751   12.62396 
 C                     11.33282   11.23013   12.20802 
 C                     11.57572   9.88549   11.85451 
 C                     12.9939   9.59942   12.03789 
 C                     13.63971   10.76942   12.4912 
 C                     12.98247   13.12765   11.75047 
 C                     13.10494   14.28842   12.54279 
 C                     12.86968   13.93302   13.93717 
 C                     12.5923   12.55158   14.01608 
 C                     13.15151   13.16616   10.37656 
 C                     13.46766   14.39214   9.75385 
 C                     13.599    15.5512   10.54709 
 C                     13.41276   15.5057   11.92604 
 C                     13.74553   8.43475   11.8484 
 C                     15.11376   8.44908   12.10516 
 C                     15.75704   9.61549   12.56903 
 C                     14.99754   10.78855   12.76277 
 C                     10.06504   11.78189   12.12618 
 C                     8.99259   10.98151   11.68215 
 C                     9.23385   9.63763   11.33213 
 C                     10.51222   9.09153   11.4116 
 C                     12.88566   14.69539   15.1103 
 C                     12.62955   14.08086   16.33285 
 C                     12.36767   12.6975   16.41371 
 C                     12.34936   11.93012   15.23061 
 N                     13.65226   14.45828   8.35492 
 N                     17.14498   9.60915   12.83391 
 N                     7.6878    11.52084   11.5843 
 N                     12.13003   12.09241   17.67023 
 C                     12.86512   12.51208   18.81085 
 C                     7.19986   12.39736   12.58765 
 C                     11.18135   11.04553   17.79932 
 C                     6.86199   11.18838   10.47968 
 C                     14.24972   13.37632   7.65515 
 C                     13.26592   15.61793   7.63115 
 C                     17.77244   8.44635   13.35429 
 C                     17.93104   10.76203   12.56903 
 C                     19.0017   8.00627   12.84902 
 C                     19.63286   6.87248   13.36583 
 C                     19.02529   6.1431    14.39512 
 C                     17.79077   6.57431   14.90469 
 C                     17.17947   7.7123    14.39821 
 C                     13.73304   12.94355   6.42799 
 C                     14.33043   11.89966   5.71823 
 C                     15.45564   11.25246   6.24305 
 C                     15.97459   11.673    7.47715 
 C                     15.38633   12.72364   8.16686 
 C                     14.09948   16.15888   6.64462 
 C                     13.71711   17.28455   5.9113 
 C                     12.4896   17.90487   6.17326 
 C                     11.65169   17.3747   7.1666 
 C                     12.02979   16.24402   7.87649 
 C                     18.89642   11.19977   13.48345 
 C                     19.68424   12.32315   13.22168 
 C                     19.5009   13.04391   12.03512 
 C                     18.53174   12.61503   11.11527 
 C                     17.76639   11.48732   11.3748 
 C                     7.44458   12.14564   13.94358 
 C                     6.97511   13.00887   14.93572 
 C                     6.22672   14.13882   14.5833 
 C                     5.96675   14.39229   13.2281 
 C                     6.45348   13.54052   12.24643 
 C                     7.38519   11.13176   9.18141 
 C                     6.58012   10.79755   8.09036 
 C                     5.21877   10.5315   8.28151 
 C                     4.68358   10.59629   9.5767 
 C                     5.49396   10.911    10.65855 
 C                     9.94264   11.10811   17.13339 
 C                     9.01155   10.08795   17.26507 
 C                     9.27918   8.97926   18.0829 
 C                     10.50395   8.90858   18.75692 
 C                     11.4447   9.9296    18.60365 
 C                     14.24268   12.7519   18.73324 
 C                     14.96622   13.18355   19.8471 
 C                     14.31812   13.3613   21.07561 
 C                     12.94097   13.10812   21.16649 
 C                     12.22546   12.6993   20.05011 
 H                     12.15242   10.85923   15.28118 
 H                     9.88916   12.82503   12.38951 
 H                     8.39927   9.02325   10.99593 
 H                     10.66978   8.04661   11.14081 
 H                     13.27537   7.51896   11.48798 
 H                     15.70491   7.54819   11.94607 
 H                     13.08422   15.76754   15.07738 
 H                     12.63237   14.6709   17.24848 
 H                     13.52492   16.41776   12.51381 
 H                     13.85225   16.49476   10.06577 
 H                     15.4823   11.69506   13.12529 
 H                     13.04077   12.2643   9.77468 
 O                     8.28998   8.03449   18.1557 
 C                     8.53813   6.88857   18.96051 
 O                     4.33887   10.20275   7.28331 
 C                     4.84564   10.15569   5.95537 
 O                     19.5481   5.01251   14.96569 
 O                     16.1153   10.21635   5.63651 
 C                     15.60591   9.75608   4.39116 
 C                     20.79597   4.5456    14.46855 
 H                     17.33059   6.00676   15.71315 
 H                     16.2257   8.04216   14.80871 
 H                     12.85379   13.43729   6.01537 
 H                     13.90042   11.59473   4.76651 
 H                     20.58828   6.56314   12.94698 
 H                     19.47664   8.56204   12.04108 
 H                     16.85637   11.16863   7.87246 
 H                     15.80307   13.04835   9.11985 
 H                     12.39848   9.86023   19.12559 
 H                     10.7463   8.05977   19.39315 
 H                     8.05359   10.13406   16.74691 
 H                     9.71966   11.96656   16.50031 
 H                     7.02519   10.76342   7.09791 
 H                     8.44093   11.34801   9.02104 
 H                     3.62453   10.38165   9.71731 
 H                     5.06714   10.94798   11.66041 
 H                     5.63822   9.39686   5.8502 
 H                     5.23966   11.13491   5.63827 
 H                     3.99736   9.88298   5.31947 
 H                     15.6256   10.5501   3.62682 
 H                     14.57619   9.37604   4.4904 
 H                     16.26481   8.93875   4.08081 
 H                     21.03618   3.65122   15.05236 
 H                     21.59272   5.29474   14.60592 
 H                     20.73215   4.2777    13.40131 
 H                     8.70407   7.16256   20.01517 
 H                     9.40672   6.31773   18.59432 
 H                     7.63933   6.26805   18.88512 
 H                     5.39011   15.2778   12.96199 
 H                     6.25375   13.75496   11.19722 
 H                     7.1874    12.78149   15.97861 
 H                     8.01857   11.26351   14.22675 
 H                     14.75689   12.60829   17.78343 
 H                     16.03443   13.36332   19.74395 
 H                     12.44353   13.25578   22.12483 
 H                     11.1542   12.51743   20.13193 
 H                     20.42485   12.63127   13.95691 
 H                     19.03949   10.65026   14.41343 
 H                     18.40317   13.17766   10.19066 
 H                     17.0215   11.15781   10.65083 
 H                     11.36528   15.83554   8.6373 
 H                     10.69353   17.85761   7.35701 
 H                     14.3912   17.67276   5.15033 
 H                     15.0604   15.68779   6.44004 
 O                     5.71417   15.04496   15.47345 
 C                     5.94964   14.80716   16.85656 
 O                     12.02083   19.01562   5.52227 
 C                     12.84983   19.58224   4.51481 
 O                     20.20696   14.16358   11.6834 
 C                     21.18272   14.63841   12.6026 
 O                     14.92933   13.77521   22.22981 
 C                     16.32145   14.05981   22.16844 
 H                     5.46242   15.62973   17.38986 
 H                     7.02668   14.8084   17.08996 
 H                     5.51038   13.85031   17.18229 
 H                     16.60458   14.38915   23.17318 
 H                     16.53792   14.86379   21.44637 
 H                     16.90692   13.16588   21.89952 
 H                     21.61961   15.53064   12.14278 
 H                     21.97547   13.89187   12.77387 
 H                     20.72874   14.91136   13.56889 
 H                     12.30379   20.44878   4.12841 
 H                     13.03267   18.87062   3.69319 
 H                     13.81637   19.91476   4.92646 
 
 NAtoms=    161 NQM=    161 NQMF=      0 NMic=      0 NMicF=      0 NTot=    161.
                    Isotopes and Nuclear Properties:
 (Nuclear quadrupole moments (NQMom) in fm**2, nuclear magnetic moments (NMagM)
  in nuclear magnetons)

  Atom         1           2           3           4           5           6           7           8           9          10
 IAtWgt=          12          12          12          12          12          12          12          12          12          12
 AtmWgt=  12.0000000  12.0000000  12.0000000  12.0000000  12.0000000  12.0000000  12.0000000  12.0000000  12.0000000  12.0000000
 NucSpn=           0           0           0           0           0           0           0           0           0           0
 AtZEff=   0.0000000   0.0000000   0.0000000   0.0000000   0.0000000   0.0000000   0.0000000   0.0000000   0.0000000   0.0000000
 NQMom=    0.0000000   0.0000000   0.0000000   0.0000000   0.0000000   0.0000000   0.0000000   0.0000000   0.0000000   0.0000000
 NMagM=    0.0000000   0.0000000   0.0000000   0.0000000   0.0000000   0.0000000   0.0000000   0.0000000   0.0000000   0.0000000

  Atom        11          12          13          14          15          16          17          18          19          20
 IAtWgt=          12          12          12          12          12          12          12          12          12          12
 AtmWgt=  12.0000000  12.0000000  12.0000000  12.0000000  12.0000000  12.0000000  12.0000000  12.0000000  12.0000000  12.0000000
 NucSpn=           0           0           0           0           0           0           0           0           0           0
 AtZEff=   0.0000000   0.0000000   0.0000000   0.0000000   0.0000000   0.0000000   0.0000000   0.0000000   0.0000000   0.0000000
 NQMom=    0.0000000   0.0000000   0.0000000   0.0000000   0.0000000   0.0000000   0.0000000   0.0000000   0.0000000   0.0000000
 NMagM=    0.0000000   0.0000000   0.0000000   0.0000000   0.0000000   0.0000000   0.0000000   0.0000000   0.0000000   0.0000000

  Atom        21          22          23          24          25          26          27          28          29          30
 IAtWgt=          12          12          12          12          12          14          14          14          14          12
 AtmWgt=  12.0000000  12.0000000  12.0000000  12.0000000  12.0000000  14.0030740  14.0030740  14.0030740  14.0030740  12.0000000
 NucSpn=           0           0           0           0           0           2           2           2           2           0
 AtZEff=   0.0000000   0.0000000   0.0000000   0.0000000   0.0000000   0.0000000   0.0000000   0.0000000   0.0000000   0.0000000
 NQMom=    0.0000000   0.0000000   0.0000000   0.0000000   0.0000000   2.0440000   2.0440000   2.0440000   2.0440000   0.0000000
 NMagM=    0.0000000   0.0000000   0.0000000   0.0000000   0.0000000   0.4037610   0.4037610   0.4037610   0.4037610   0.0000000

  Atom        31          32          33          34          35          36          37          38          39          40
 IAtWgt=          12          12          12          12          12          12          12          12          12          12
 AtmWgt=  12.0000000  12.0000000  12.0000000  12.0000000  12.0000000  12.0000000  12.0000000  12.0000000  12.0000000  12.0000000
 NucSpn=           0           0           0           0           0           0           0           0           0           0
 AtZEff=   0.0000000   0.0000000   0.0000000   0.0000000   0.0000000   0.0000000   0.0000000   0.0000000   0.0000000   0.0000000
 NQMom=    0.0000000   0.0000000   0.0000000   0.0000000   0.0000000   0.0000000   0.0000000   0.0000000   0.0000000   0.0000000
 NMagM=    0.0000000   0.0000000   0.0000000   0.0000000   0.0000000   0.0000000   0.0000000   0.0000000   0.0000000   0.0000000

  Atom        41          42          43          44          45          46          47          48          49          50
 IAtWgt=          12          12          12          12          12          12          12          12          12          12
 AtmWgt=  12.0000000  12.0000000  12.0000000  12.0000000  12.0000000  12.0000000  12.0000000  12.0000000  12.0000000  12.0000000
 NucSpn=           0           0           0           0           0           0           0           0           0           0
 AtZEff=   0.0000000   0.0000000   0.0000000   0.0000000   0.0000000   0.0000000   0.0000000   0.0000000   0.0000000   0.0000000
 NQMom=    0.0000000   0.0000000   0.0000000   0.0000000   0.0000000   0.0000000   0.0000000   0.0000000   0.0000000   0.0000000
 NMagM=    0.0000000   0.0000000   0.0000000   0.0000000   0.0000000   0.0000000   0.0000000   0.0000000   0.0000000   0.0000000

  Atom        51          52          53          54          55          56          57          58          59          60
 IAtWgt=          12          12          12          12          12          12          12          12          12          12
 AtmWgt=  12.0000000  12.0000000  12.0000000  12.0000000  12.0000000  12.0000000  12.0000000  12.0000000  12.0000000  12.0000000
 NucSpn=           0           0           0           0           0           0           0           0           0           0
 AtZEff=   0.0000000   0.0000000   0.0000000   0.0000000   0.0000000   0.0000000   0.0000000   0.0000000   0.0000000   0.0000000
 NQMom=    0.0000000   0.0000000   0.0000000   0.0000000   0.0000000   0.0000000   0.0000000   0.0000000   0.0000000   0.0000000
 NMagM=    0.0000000   0.0000000   0.0000000   0.0000000   0.0000000   0.0000000   0.0000000   0.0000000   0.0000000   0.0000000

  Atom        61          62          63          64          65          66          67          68          69          70
 IAtWgt=          12          12          12          12          12          12          12          12          12          12
 AtmWgt=  12.0000000  12.0000000  12.0000000  12.0000000  12.0000000  12.0000000  12.0000000  12.0000000  12.0000000  12.0000000
 NucSpn=           0           0           0           0           0           0           0           0           0           0
 AtZEff=   0.0000000   0.0000000   0.0000000   0.0000000   0.0000000   0.0000000   0.0000000   0.0000000   0.0000000   0.0000000
 NQMom=    0.0000000   0.0000000   0.0000000   0.0000000   0.0000000   0.0000000   0.0000000   0.0000000   0.0000000   0.0000000
 NMagM=    0.0000000   0.0000000   0.0000000   0.0000000   0.0000000   0.0000000   0.0000000   0.0000000   0.0000000   0.0000000

  Atom        71          72          73          74          75          76          77          78          79          80
 IAtWgt=          12          12          12          12          12          12          12           1           1           1
 AtmWgt=  12.0000000  12.0000000  12.0000000  12.0000000  12.0000000  12.0000000  12.0000000   1.0078250   1.0078250   1.0078250
 NucSpn=           0           0           0           0           0           0           0           1           1           1
 AtZEff=   0.0000000   0.0000000   0.0000000   0.0000000   0.0000000   0.0000000   0.0000000   0.0000000   0.0000000   0.0000000
 NQMom=    0.0000000   0.0000000   0.0000000   0.0000000   0.0000000   0.0000000   0.0000000   0.0000000   0.0000000   0.0000000
 NMagM=    0.0000000   0.0000000   0.0000000   0.0000000   0.0000000   0.0000000   0.0000000   2.7928460   2.7928460   2.7928460

  Atom        81          82          83          84          85          86          87          88          89          90
 IAtWgt=           1           1           1           1           1           1           1           1           1          16
 AtmWgt=   1.0078250   1.0078250   1.0078250   1.0078250   1.0078250   1.0078250   1.0078250   1.0078250   1.0078250  15.9949146
 NucSpn=           1           1           1           1           1           1           1           1           1           0
 AtZEff=   0.0000000   0.0000000   0.0000000   0.0000000   0.0000000   0.0000000   0.0000000   0.0000000   0.0000000   0.0000000
 NQMom=    0.0000000   0.0000000   0.0000000   0.0000000   0.0000000   0.0000000   0.0000000   0.0000000   0.0000000   0.0000000
 NMagM=    2.7928460   2.7928460   2.7928460   2.7928460   2.7928460   2.7928460   2.7928460   2.7928460   2.7928460   0.0000000

  Atom        91          92          93          94          95          96          97          98          99         100
 IAtWgt=          12          16          12          16          16          12          12           1           1           1
 AtmWgt=  12.0000000  15.9949146  12.0000000  15.9949146  15.9949146  12.0000000  12.0000000   1.0078250   1.0078250   1.0078250
 NucSpn=           0           0           0           0           0           0           0           1           1           1
 AtZEff=   0.0000000   0.0000000   0.0000000   0.0000000   0.0000000   0.0000000   0.0000000   0.0000000   0.0000000   0.0000000
 NQMom=    0.0000000   0.0000000   0.0000000   0.0000000   0.0000000   0.0000000   0.0000000   0.0000000   0.0000000   0.0000000
 NMagM=    0.0000000   0.0000000   0.0000000   0.0000000   0.0000000   0.0000000   0.0000000   2.7928460   2.7928460   2.7928460

  Atom       101         102         103         104         105         106         107         108         109         110
 IAtWgt=           1           1           1           1           1           1           1           1           1           1
 AtmWgt=   1.0078250   1.0078250   1.0078250   1.0078250   1.0078250   1.0078250   1.0078250   1.0078250   1.0078250   1.0078250
 NucSpn=           1           1           1           1           1           1           1           1           1           1
 AtZEff=   0.0000000   0.0000000   0.0000000   0.0000000   0.0000000   0.0000000   0.0000000   0.0000000   0.0000000   0.0000000
 NQMom=    0.0000000   0.0000000   0.0000000   0.0000000   0.0000000   0.0000000   0.0000000   0.0000000   0.0000000   0.0000000
 NMagM=    2.7928460   2.7928460   2.7928460   2.7928460   2.7928460   2.7928460   2.7928460   2.7928460   2.7928460   2.7928460

  Atom       111         112         113         114         115         116         117         118         119         120
 IAtWgt=           1           1           1           1           1           1           1           1           1           1
 AtmWgt=   1.0078250   1.0078250   1.0078250   1.0078250   1.0078250   1.0078250   1.0078250   1.0078250   1.0078250   1.0078250
 NucSpn=           1           1           1           1           1           1           1           1           1           1
 AtZEff=   0.0000000   0.0000000   0.0000000   0.0000000   0.0000000   0.0000000   0.0000000   0.0000000   0.0000000   0.0000000
 NQMom=    0.0000000   0.0000000   0.0000000   0.0000000   0.0000000   0.0000000   0.0000000   0.0000000   0.0000000   0.0000000
 NMagM=    2.7928460   2.7928460   2.7928460   2.7928460   2.7928460   2.7928460   2.7928460   2.7928460   2.7928460   2.7928460

  Atom       121         122         123         124         125         126         127         128         129         130
 IAtWgt=           1           1           1           1           1           1           1           1           1           1
 AtmWgt=   1.0078250   1.0078250   1.0078250   1.0078250   1.0078250   1.0078250   1.0078250   1.0078250   1.0078250   1.0078250
 NucSpn=           1           1           1           1           1           1           1           1           1           1
 AtZEff=   0.0000000   0.0000000   0.0000000   0.0000000   0.0000000   0.0000000   0.0000000   0.0000000   0.0000000   0.0000000
 NQMom=    0.0000000   0.0000000   0.0000000   0.0000000   0.0000000   0.0000000   0.0000000   0.0000000   0.0000000   0.0000000
 NMagM=    2.7928460   2.7928460   2.7928460   2.7928460   2.7928460   2.7928460   2.7928460   2.7928460   2.7928460   2.7928460

  Atom       131         132         133         134         135         136         137         138         139         140
 IAtWgt=           1           1           1           1           1           1           1           1           1           1
 AtmWgt=   1.0078250   1.0078250   1.0078250   1.0078250   1.0078250   1.0078250   1.0078250   1.0078250   1.0078250   1.0078250
 NucSpn=           1           1           1           1           1           1           1           1           1           1
 AtZEff=   0.0000000   0.0000000   0.0000000   0.0000000   0.0000000   0.0000000   0.0000000   0.0000000   0.0000000   0.0000000
 NQMom=    0.0000000   0.0000000   0.0000000   0.0000000   0.0000000   0.0000000   0.0000000   0.0000000   0.0000000   0.0000000
 NMagM=    2.7928460   2.7928460   2.7928460   2.7928460   2.7928460   2.7928460   2.7928460   2.7928460   2.7928460   2.7928460

  Atom       141         142         143         144         145         146         147         148         149         150
 IAtWgt=           1          16          12          16          12          16          12          16          12           1
 AtmWgt=   1.0078250  15.9949146  12.0000000  15.9949146  12.0000000  15.9949146  12.0000000  15.9949146  12.0000000   1.0078250
 NucSpn=           1           0           0           0           0           0           0           0           0           1
 AtZEff=   0.0000000   0.0000000   0.0000000   0.0000000   0.0000000   0.0000000   0.0000000   0.0000000   0.0000000   0.0000000
 NQMom=    0.0000000   0.0000000   0.0000000   0.0000000   0.0000000   0.0000000   0.0000000   0.0000000   0.0000000   0.0000000
 NMagM=    2.7928460   0.0000000   0.0000000   0.0000000   0.0000000   0.0000000   0.0000000   0.0000000   0.0000000   2.7928460

  Atom       151         152         153         154         155         156         157         158         159         160
 IAtWgt=           1           1           1           1           1           1           1           1           1           1
 AtmWgt=   1.0078250   1.0078250   1.0078250   1.0078250   1.0078250   1.0078250   1.0078250   1.0078250   1.0078250   1.0078250
 NucSpn=           1           1           1           1           1           1           1           1           1           1
 AtZEff=   0.0000000   0.0000000   0.0000000   0.0000000   0.0000000   0.0000000   0.0000000   0.0000000   0.0000000   0.0000000
 NQMom=    0.0000000   0.0000000   0.0000000   0.0000000   0.0000000   0.0000000   0.0000000   0.0000000   0.0000000   0.0000000
 NMagM=    2.7928460   2.7928460   2.7928460   2.7928460   2.7928460   2.7928460   2.7928460   2.7928460   2.7928460   2.7928460

  Atom       161
 IAtWgt=           1
 AtmWgt=   1.0078250
 NucSpn=           1
 AtZEff=   0.0000000
 NQMom=    0.0000000
 NMagM=    2.7928460
 Leave Link  101 at Wed Aug  6 17:04:10 2014, MaxMem= 2147483648 cpu:       4.6
 (Enter /opt/g09/l103.exe)

 GradGradGradGradGradGradGradGradGradGradGradGradGradGradGradGradGradGrad
 Berny optimization.
 Initialization pass.
                           ----------------------------
                           !    Initial Parameters    !
                           ! (Angstroms and Degrees)  !
 --------------------------                            --------------------------
 ! Name  Definition              Value          Derivative Info.                !
 --------------------------------------------------------------------------------
 ! R1    R(1,2)                  1.531          estimate D2E/DX2                !
 ! R2    R(1,5)                  1.5307         estimate D2E/DX2                !
 ! R3    R(1,6)                  1.5321         estimate D2E/DX2                !
 ! R4    R(1,9)                  1.5304         estimate D2E/DX2                !
 ! R5    R(2,3)                  1.4114         estimate D2E/DX2                !
 ! R6    R(2,18)                 1.3851         estimate D2E/DX2                !
 ! R7    R(3,4)                  1.4583         estimate D2E/DX2                !
 ! R8    R(3,21)                 1.3991         estimate D2E/DX2                !
 ! R9    R(4,5)                  1.4112         estimate D2E/DX2                !
 ! R10   R(4,14)                 1.399          estimate D2E/DX2                !
 ! R11   R(5,17)                 1.3849         estimate D2E/DX2                !
 ! R12   R(6,7)                  1.4107         estimate D2E/DX2                !
 ! R13   R(6,10)                 1.3848         estimate D2E/DX2                !
 ! R14   R(7,8)                  1.4581         estimate D2E/DX2                !
 ! R15   R(7,13)                 1.3989         estimate D2E/DX2                !
 ! R16   R(8,9)                  1.4112         estimate D2E/DX2                !
 ! R17   R(8,22)                 1.3992         estimate D2E/DX2                !
 ! R18   R(9,25)                 1.3857         estimate D2E/DX2                !
 ! R19   R(10,11)                1.4109         estimate D2E/DX2                !
 ! R20   R(10,89)                1.0899         estimate D2E/DX2                !
 ! R21   R(11,12)                1.4106         estimate D2E/DX2                !
 ! R22   R(11,26)                1.4126         estimate D2E/DX2                !
 ! R23   R(12,13)                1.3922         estimate D2E/DX2                !
 ! R24   R(12,87)                1.0891         estimate D2E/DX2                !
 ! R25   R(13,86)                1.0908         estimate D2E/DX2                !
 ! R26   R(14,15)                1.3922         estimate D2E/DX2                !
 ! R27   R(14,82)                1.0907         estimate D2E/DX2                !
 ! R28   R(15,16)                1.4105         estimate D2E/DX2                !
 ! R29   R(15,83)                1.0892         estimate D2E/DX2                !
 ! R30   R(16,17)                1.4108         estimate D2E/DX2                !
 ! R31   R(16,27)                1.413          estimate D2E/DX2                !
 ! R32   R(17,88)                1.09           estimate D2E/DX2                !
 ! R33   R(18,19)                1.4099         estimate D2E/DX2                !
 ! R34   R(18,79)                1.0901         estimate D2E/DX2                !
 ! R35   R(19,20)                1.4095         estimate D2E/DX2                !
 ! R36   R(19,28)                1.4153         estimate D2E/DX2                !
 ! R37   R(20,21)                1.3924         estimate D2E/DX2                !
 ! R38   R(20,80)                1.0895         estimate D2E/DX2                !
 ! R39   R(21,81)                1.0909         estimate D2E/DX2                !
 ! R40   R(22,23)                1.3921         estimate D2E/DX2                !
 ! R41   R(22,84)                1.0909         estimate D2E/DX2                !
 ! R42   R(23,24)                1.4103         estimate D2E/DX2                !
 ! R43   R(23,85)                1.0893         estimate D2E/DX2                !
 ! R44   R(24,25)                1.4103         estimate D2E/DX2                !
 ! R45   R(24,29)                1.4147         estimate D2E/DX2                !
 ! R46   R(25,78)                1.09           estimate D2E/DX2                !
 ! R47   R(26,34)                1.4203         estimate D2E/DX2                !
 ! R48   R(26,35)                1.4205         estimate D2E/DX2                !
 ! R49   R(27,36)                1.4201         estimate D2E/DX2                !
 ! R50   R(27,37)                1.4203         estimate D2E/DX2                !
 ! R51   R(28,31)                1.4188         estimate D2E/DX2                !
 ! R52   R(28,33)                1.4187         estimate D2E/DX2                !
 ! R53   R(29,30)                1.4204         estimate D2E/DX2                !
 ! R54   R(29,32)                1.4187         estimate D2E/DX2                !
 ! R55   R(30,73)                1.4004         estimate D2E/DX2                !
 ! R56   R(30,77)                1.4071         estimate D2E/DX2                !
 ! R57   R(31,58)                1.4006         estimate D2E/DX2                !
 ! R58   R(31,62)                1.4072         estimate D2E/DX2                !
 ! R59   R(32,68)                1.4078         estimate D2E/DX2                !
 ! R60   R(32,72)                1.4006         estimate D2E/DX2                !
 ! R61   R(33,63)                1.4009         estimate D2E/DX2                !
 ! R62   R(33,67)                1.4073         estimate D2E/DX2                !
 ! R63   R(34,43)                1.4001         estimate D2E/DX2                !
 ! R64   R(34,47)                1.407          estimate D2E/DX2                !
 ! R65   R(35,48)                1.4002         estimate D2E/DX2                !
 ! R66   R(35,52)                1.4072         estimate D2E/DX2                !
 ! R67   R(36,38)                1.4            estimate D2E/DX2                !
 ! R68   R(36,42)                1.4072         estimate D2E/DX2                !
 ! R69   R(37,53)                1.3999         estimate D2E/DX2                !
 ! R70   R(37,57)                1.4069         estimate D2E/DX2                !
 ! R71   R(38,39)                1.3968         estimate D2E/DX2                !
 ! R72   R(38,103)               1.0896         estimate D2E/DX2                !
 ! R73   R(39,40)                1.4002         estimate D2E/DX2                !
 ! R74   R(39,102)               1.0881         estimate D2E/DX2                !
 ! R75   R(40,41)                1.4034         estimate D2E/DX2                !
 ! R76   R(40,94)                1.3701         estimate D2E/DX2                !
 ! R77   R(41,42)                1.3875         estimate D2E/DX2                !
 ! R78   R(41,98)                1.0897         estimate D2E/DX2                !
 ! R79   R(42,99)                1.0895         estimate D2E/DX2                !
 ! R80   R(43,44)                1.3965         estimate D2E/DX2                !
 ! R81   R(43,100)               1.0895         estimate D2E/DX2                !
 ! R82   R(44,45)                1.4001         estimate D2E/DX2                !
 ! R83   R(44,101)               1.088          estimate D2E/DX2                !
 ! R84   R(45,46)                1.4033         estimate D2E/DX2                !
 ! R85   R(45,95)                1.3699         estimate D2E/DX2                !
 ! R86   R(46,47)                1.3877         estimate D2E/DX2                !
 ! R87   R(46,104)               1.09           estimate D2E/DX2                !
 ! R88   R(47,105)               1.0896         estimate D2E/DX2                !
 ! R89   R(48,49)                1.3968         estimate D2E/DX2                !
 ! R90   R(48,141)               1.0896         estimate D2E/DX2                !
 ! R91   R(49,50)                1.4001         estimate D2E/DX2                !
 ! R92   R(49,140)               1.0882         estimate D2E/DX2                !
 ! R93   R(50,51)                1.4035         estimate D2E/DX2                !
 ! R94   R(50,144)               1.3702         estimate D2E/DX2                !
 ! R95   R(51,52)                1.3876         estimate D2E/DX2                !
 ! R96   R(51,139)               1.0897         estimate D2E/DX2                !
 ! R97   R(52,138)               1.0896         estimate D2E/DX2                !
 ! R98   R(53,54)                1.3968         estimate D2E/DX2                !
 ! R99   R(53,135)               1.0896         estimate D2E/DX2                !
 ! R100  R(54,55)                1.4004         estimate D2E/DX2                !
 ! R101  R(54,134)               1.0881         estimate D2E/DX2                !
 ! R102  R(55,56)                1.4033         estimate D2E/DX2                !
 ! R103  R(55,146)               1.3696         estimate D2E/DX2                !
 ! R104  R(56,57)                1.3874         estimate D2E/DX2                !
 ! R105  R(56,136)               1.09           estimate D2E/DX2                !
 ! R106  R(57,137)               1.0898         estimate D2E/DX2                !
 ! R107  R(58,59)                1.3964         estimate D2E/DX2                !
 ! R108  R(58,129)               1.0899         estimate D2E/DX2                !
 ! R109  R(59,60)                1.4004         estimate D2E/DX2                !
 ! R110  R(59,128)               1.0883         estimate D2E/DX2                !
 ! R111  R(60,61)                1.403          estimate D2E/DX2                !
 ! R112  R(60,142)               1.3697         estimate D2E/DX2                !
 ! R113  R(61,62)                1.3878         estimate D2E/DX2                !
 ! R114  R(61,126)               1.0897         estimate D2E/DX2                !
 ! R115  R(62,127)               1.0894         estimate D2E/DX2                !
 ! R116  R(63,64)                1.3965         estimate D2E/DX2                !
 ! R117  R(63,111)               1.0895         estimate D2E/DX2                !
 ! R118  R(64,65)                1.4002         estimate D2E/DX2                !
 ! R119  R(64,110)               1.0882         estimate D2E/DX2                !
 ! R120  R(65,66)                1.4029         estimate D2E/DX2                !
 ! R121  R(65,92)                1.3707         estimate D2E/DX2                !
 ! R122  R(66,67)                1.3879         estimate D2E/DX2                !
 ! R123  R(66,112)               1.0897         estimate D2E/DX2                !
 ! R124  R(67,113)               1.0896         estimate D2E/DX2                !
 ! R125  R(68,69)                1.3874         estimate D2E/DX2                !
 ! R126  R(68,109)               1.0897         estimate D2E/DX2                !
 ! R127  R(69,70)                1.4034         estimate D2E/DX2                !
 ! R128  R(69,108)               1.0901         estimate D2E/DX2                !
 ! R129  R(70,71)                1.3998         estimate D2E/DX2                !
 ! R130  R(70,90)                1.3698         estimate D2E/DX2                !
 ! R131  R(71,72)                1.3968         estimate D2E/DX2                !
 ! R132  R(71,107)               1.0881         estimate D2E/DX2                !
 ! R133  R(72,106)               1.0895         estimate D2E/DX2                !
 ! R134  R(73,74)                1.3966         estimate D2E/DX2                !
 ! R135  R(73,130)               1.0896         estimate D2E/DX2                !
 ! R136  R(74,75)                1.4003         estimate D2E/DX2                !
 ! R137  R(74,131)               1.0881         estimate D2E/DX2                !
 ! R138  R(75,76)                1.4032         estimate D2E/DX2                !
 ! R139  R(75,148)               1.3701         estimate D2E/DX2                !
 ! R140  R(76,77)                1.3876         estimate D2E/DX2                !
 ! R141  R(76,132)               1.0898         estimate D2E/DX2                !
 ! R142  R(77,133)               1.0897         estimate D2E/DX2                !
 ! R143  R(90,91)                1.4221         estimate D2E/DX2                !
 ! R144  R(91,123)               1.1022         estimate D2E/DX2                !
 ! R145  R(91,124)               1.102          estimate D2E/DX2                !
 ! R146  R(91,125)               1.0948         estimate D2E/DX2                !
 ! R147  R(92,93)                1.4221         estimate D2E/DX2                !
 ! R148  R(93,114)               1.1023         estimate D2E/DX2                !
 ! R149  R(93,115)               1.1021         estimate D2E/DX2                !
 ! R150  R(93,116)               1.0947         estimate D2E/DX2                !
 ! R151  R(94,97)                1.4221         estimate D2E/DX2                !
 ! R152  R(95,96)                1.422          estimate D2E/DX2                !
 ! R153  R(96,117)               1.1023         estimate D2E/DX2                !
 ! R154  R(96,118)               1.1021         estimate D2E/DX2                !
 ! R155  R(96,119)               1.0948         estimate D2E/DX2                !
 ! R156  R(97,120)               1.0947         estimate D2E/DX2                !
 ! R157  R(97,121)               1.1022         estimate D2E/DX2                !
 ! R158  R(97,122)               1.1022         estimate D2E/DX2                !
 ! R159  R(142,143)              1.423          estimate D2E/DX2                !
 ! R160  R(143,150)              1.0947         estimate D2E/DX2                !
 ! R161  R(143,151)              1.102          estimate D2E/DX2                !
 ! R162  R(143,152)              1.1021         estimate D2E/DX2                !
 ! R163  R(144,145)              1.4224         estimate D2E/DX2                !
 ! R164  R(145,159)              1.0947         estimate D2E/DX2                !
 ! R165  R(145,160)              1.1022         estimate D2E/DX2                !
 ! R166  R(145,161)              1.1019         estimate D2E/DX2                !
 ! R167  R(146,147)              1.4221         estimate D2E/DX2                !
 ! R168  R(147,156)              1.0947         estimate D2E/DX2                !
 ! R169  R(147,157)              1.1023         estimate D2E/DX2                !
 ! R170  R(147,158)              1.102          estimate D2E/DX2                !
 ! R171  R(148,149)              1.4222         estimate D2E/DX2                !
 ! R172  R(149,153)              1.0946         estimate D2E/DX2                !
 ! R173  R(149,154)              1.1021         estimate D2E/DX2                !
 ! R174  R(149,155)              1.1019         estimate D2E/DX2                !
 ! A1    A(2,1,5)              101.4098         estimate D2E/DX2                !
 ! A2    A(2,1,6)              113.0892         estimate D2E/DX2                !
 ! A3    A(2,1,9)              114.1281         estimate D2E/DX2                !
 ! A4    A(5,1,6)              113.2513         estimate D2E/DX2                !
 ! A5    A(5,1,9)              114.1071         estimate D2E/DX2                !
 ! A6    A(6,1,9)              101.4102         estimate D2E/DX2                !
 ! A7    A(1,2,3)              110.4428         estimate D2E/DX2                !
 ! A8    A(1,2,18)             128.0518         estimate D2E/DX2                !
 ! A9    A(3,2,18)             121.4832         estimate D2E/DX2                !
 ! A10   A(2,3,4)              108.8293         estimate D2E/DX2                !
 ! A11   A(2,3,21)             119.2816         estimate D2E/DX2                !
 ! A12   A(4,3,21)             131.8885         estimate D2E/DX2                !
 ! A13   A(3,4,5)              108.8324         estimate D2E/DX2                !
 ! A14   A(3,4,14)             131.9688         estimate D2E/DX2                !
 ! A15   A(5,4,14)             119.1988         estimate D2E/DX2                !
 ! A16   A(1,5,4)              110.4669         estimate D2E/DX2                !
 ! A17   A(1,5,17)             127.9883         estimate D2E/DX2                !
 ! A18   A(4,5,17)             121.5438         estimate D2E/DX2                !
 ! A19   A(1,6,7)              110.4462         estimate D2E/DX2                !
 ! A20   A(1,6,10)             127.9655         estimate D2E/DX2                !
 ! A21   A(7,6,10)             121.5837         estimate D2E/DX2                !
 ! A22   A(6,7,8)              108.8169         estimate D2E/DX2                !
 ! A23   A(6,7,13)             119.1749         estimate D2E/DX2                !
 ! A24   A(8,7,13)             132.0078         estimate D2E/DX2                !
 ! A25   A(7,8,9)              108.8921         estimate D2E/DX2                !
 ! A26   A(7,8,22)             131.8489         estimate D2E/DX2                !
 ! A27   A(9,8,22)             119.2577         estimate D2E/DX2                !
 ! A28   A(1,9,8)              110.4321         estimate D2E/DX2                !
 ! A29   A(1,9,25)             128.0596         estimate D2E/DX2                !
 ! A30   A(8,9,25)             121.4978         estimate D2E/DX2                !
 ! A31   A(6,10,11)            119.3            estimate D2E/DX2                !
 ! A32   A(6,10,89)            120.8294         estimate D2E/DX2                !
 ! A33   A(11,10,89)           119.8704         estimate D2E/DX2                !
 ! A34   A(10,11,12)           119.1193         estimate D2E/DX2                !
 ! A35   A(10,11,26)           120.4664         estimate D2E/DX2                !
 ! A36   A(12,11,26)           120.4143         estimate D2E/DX2                !
 ! A37   A(11,12,13)           121.1758         estimate D2E/DX2                !
 ! A38   A(11,12,87)           119.0121         estimate D2E/DX2                !
 ! A39   A(13,12,87)           119.8121         estimate D2E/DX2                !
 ! A40   A(7,13,12)            119.6405         estimate D2E/DX2                !
 ! A41   A(7,13,86)            120.8394         estimate D2E/DX2                !
 ! A42   A(12,13,86)           119.5125         estimate D2E/DX2                !
 ! A43   A(4,14,15)            119.6336         estimate D2E/DX2                !
 ! A44   A(4,14,82)            120.8076         estimate D2E/DX2                !
 ! A45   A(15,14,82)           119.5528         estimate D2E/DX2                !
 ! A46   A(14,15,16)           121.1568         estimate D2E/DX2                !
 ! A47   A(14,15,83)           119.8642         estimate D2E/DX2                !
 ! A48   A(16,15,83)           118.9789         estimate D2E/DX2                !
 ! A49   A(15,16,17)           119.1586         estimate D2E/DX2                !
 ! A50   A(15,16,27)           120.3918         estimate D2E/DX2                !
 ! A51   A(17,16,27)           120.4496         estimate D2E/DX2                !
 ! A52   A(5,17,16)            119.3024         estimate D2E/DX2                !
 ! A53   A(5,17,88)            120.8467         estimate D2E/DX2                !
 ! A54   A(16,17,88)           119.8507         estimate D2E/DX2                !
 ! A55   A(2,18,19)            119.2551         estimate D2E/DX2                !
 ! A56   A(2,18,79)            120.9702         estimate D2E/DX2                !
 ! A57   A(19,18,79)           119.7715         estimate D2E/DX2                !
 ! A58   A(18,19,20)           119.2912         estimate D2E/DX2                !
 ! A59   A(18,19,28)           120.4452         estimate D2E/DX2                !
 ! A60   A(20,19,28)           120.2634         estimate D2E/DX2                !
 ! A61   A(19,20,21)           121.1252         estimate D2E/DX2                !
 ! A62   A(19,20,80)           118.8924         estimate D2E/DX2                !
 ! A63   A(21,20,80)           119.9823         estimate D2E/DX2                !
 ! A64   A(3,21,20)            119.5625         estimate D2E/DX2                !
 ! A65   A(3,21,81)            120.8208         estimate D2E/DX2                !
 ! A66   A(20,21,81)           119.6115         estimate D2E/DX2                !
 ! A67   A(8,22,23)            119.584          estimate D2E/DX2                !
 ! A68   A(8,22,84)            120.8165         estimate D2E/DX2                !
 ! A69   A(23,22,84)           119.5952         estimate D2E/DX2                !
 ! A70   A(22,23,24)           121.1685         estimate D2E/DX2                !
 ! A71   A(22,23,85)           119.9085         estimate D2E/DX2                !
 ! A72   A(24,23,85)           118.9227         estimate D2E/DX2                !
 ! A73   A(23,24,25)           119.2131         estimate D2E/DX2                !
 ! A74   A(23,24,29)           120.1105         estimate D2E/DX2                !
 ! A75   A(25,24,29)           120.6763         estimate D2E/DX2                !
 ! A76   A(9,25,24)            119.2715         estimate D2E/DX2                !
 ! A77   A(9,25,78)            120.8597         estimate D2E/DX2                !
 ! A78   A(24,25,78)           119.8674         estimate D2E/DX2                !
 ! A79   A(11,26,34)           120.4791         estimate D2E/DX2                !
 ! A80   A(11,26,35)           120.4815         estimate D2E/DX2                !
 ! A81   A(34,26,35)           119.0291         estimate D2E/DX2                !
 ! A82   A(16,27,36)           120.4235         estimate D2E/DX2                !
 ! A83   A(16,27,37)           120.3337         estimate D2E/DX2                !
 ! A84   A(36,27,37)           119.2394         estimate D2E/DX2                !
 ! A85   A(19,28,31)           120.2381         estimate D2E/DX2                !
 ! A86   A(19,28,33)           120.0785         estimate D2E/DX2                !
 ! A87   A(31,28,33)           119.6833         estimate D2E/DX2                !
 ! A88   A(24,29,30)           119.9959         estimate D2E/DX2                !
 ! A89   A(24,29,32)           120.5809         estimate D2E/DX2                !
 ! A90   A(30,29,32)           119.409          estimate D2E/DX2                !
 ! A91   A(29,30,73)           121.0089         estimate D2E/DX2                !
 ! A92   A(29,30,77)           120.75           estimate D2E/DX2                !
 ! A93   A(73,30,77)           118.241          estimate D2E/DX2                !
 ! A94   A(28,31,58)           120.8961         estimate D2E/DX2                !
 ! A95   A(28,31,62)           120.8489         estimate D2E/DX2                !
 ! A96   A(58,31,62)           118.2546         estimate D2E/DX2                !
 ! A97   A(29,32,68)           120.8354         estimate D2E/DX2                !
 ! A98   A(29,32,72)           120.9623         estimate D2E/DX2                !
 ! A99   A(68,32,72)           118.1985         estimate D2E/DX2                !
 ! A100  A(28,33,63)           120.9082         estimate D2E/DX2                !
 ! A101  A(28,33,67)           120.8693         estimate D2E/DX2                !
 ! A102  A(63,33,67)           118.2221         estimate D2E/DX2                !
 ! A103  A(26,34,43)           120.8021         estimate D2E/DX2                !
 ! A104  A(26,34,47)           120.9302         estimate D2E/DX2                !
 ! A105  A(43,34,47)           118.2619         estimate D2E/DX2                !
 ! A106  A(26,35,48)           120.8272         estimate D2E/DX2                !
 ! A107  A(26,35,52)           120.8829         estimate D2E/DX2                !
 ! A108  A(48,35,52)           118.2862         estimate D2E/DX2                !
 ! A109  A(27,36,38)           120.8703         estimate D2E/DX2                !
 ! A110  A(27,36,42)           120.8496         estimate D2E/DX2                !
 ! A111  A(38,36,42)           118.2784         estimate D2E/DX2                !
 ! A112  A(27,37,53)           120.9084         estimate D2E/DX2                !
 ! A113  A(27,37,57)           120.7969         estimate D2E/DX2                !
 ! A114  A(53,37,57)           118.2926         estimate D2E/DX2                !
 ! A115  A(36,38,39)           121.2236         estimate D2E/DX2                !
 ! A116  A(36,38,103)          119.3406         estimate D2E/DX2                !
 ! A117  A(39,38,103)          119.4351         estimate D2E/DX2                !
 ! A118  A(38,39,40)           119.9176         estimate D2E/DX2                !
 ! A119  A(38,39,102)          119.0198         estimate D2E/DX2                !
 ! A120  A(40,39,102)          121.0567         estimate D2E/DX2                !
 ! A121  A(39,40,41)           119.2446         estimate D2E/DX2                !
 ! A122  A(39,40,94)           124.7788         estimate D2E/DX2                !
 ! A123  A(41,40,94)           115.9765         estimate D2E/DX2                !
 ! A124  A(40,41,42)           120.4645         estimate D2E/DX2                !
 ! A125  A(40,41,98)           118.7379         estimate D2E/DX2                !
 ! A126  A(42,41,98)           120.7921         estimate D2E/DX2                !
 ! A127  A(36,42,41)           120.8614         estimate D2E/DX2                !
 ! A128  A(36,42,99)           119.3719         estimate D2E/DX2                !
 ! A129  A(41,42,99)           119.7662         estimate D2E/DX2                !
 ! A130  A(34,43,44)           121.2417         estimate D2E/DX2                !
 ! A131  A(34,43,100)          119.3189         estimate D2E/DX2                !
 ! A132  A(44,43,100)          119.4369         estimate D2E/DX2                !
 ! A133  A(43,44,45)           119.9192         estimate D2E/DX2                !
 ! A134  A(43,44,101)          119.0132         estimate D2E/DX2                !
 ! A135  A(45,44,101)          121.0627         estimate D2E/DX2                !
 ! A136  A(44,45,46)           119.23           estimate D2E/DX2                !
 ! A137  A(44,45,95)           124.7943         estimate D2E/DX2                !
 ! A138  A(46,45,95)           115.9754         estimate D2E/DX2                !
 ! A139  A(45,46,47)           120.4807         estimate D2E/DX2                !
 ! A140  A(45,46,104)          118.6479         estimate D2E/DX2                !
 ! A141  A(47,46,104)          120.864          estimate D2E/DX2                !
 ! A142  A(34,47,46)           120.8567         estimate D2E/DX2                !
 ! A143  A(34,47,105)          119.2617         estimate D2E/DX2                !
 ! A144  A(46,47,105)          119.8809         estimate D2E/DX2                !
 ! A145  A(35,48,49)           121.2153         estimate D2E/DX2                !
 ! A146  A(35,48,141)          119.3576         estimate D2E/DX2                !
 ! A147  A(49,48,141)          119.4252         estimate D2E/DX2                !
 ! A148  A(48,49,50)           119.9223         estimate D2E/DX2                !
 ! A149  A(48,49,140)          119.0154         estimate D2E/DX2                !
 ! A150  A(50,49,140)          121.0572         estimate D2E/DX2                !
 ! A151  A(49,50,51)           119.2414         estimate D2E/DX2                !
 ! A152  A(49,50,144)          124.7673         estimate D2E/DX2                !
 ! A153  A(51,50,144)          115.9911         estimate D2E/DX2                !
 ! A154  A(50,51,52)           120.4782         estimate D2E/DX2                !
 ! A155  A(50,51,139)          118.7633         estimate D2E/DX2                !
 ! A156  A(52,51,139)          120.7506         estimate D2E/DX2                !
 ! A157  A(35,52,51)           120.8452         estimate D2E/DX2                !
 ! A158  A(35,52,138)          119.384          estimate D2E/DX2                !
 ! A159  A(51,52,138)          119.7702         estimate D2E/DX2                !
 ! A160  A(37,53,54)           121.1984         estimate D2E/DX2                !
 ! A161  A(37,53,135)          119.3638         estimate D2E/DX2                !
 ! A162  A(54,53,135)          119.4368         estimate D2E/DX2                !
 ! A163  A(53,54,55)           119.9259         estimate D2E/DX2                !
 ! A164  A(53,54,134)          119.0118         estimate D2E/DX2                !
 ! A165  A(55,54,134)          121.0565         estimate D2E/DX2                !
 ! A166  A(54,55,56)           119.243          estimate D2E/DX2                !
 ! A167  A(54,55,146)          124.8103         estimate D2E/DX2                !
 ! A168  A(56,55,146)          115.9466         estimate D2E/DX2                !
 ! A169  A(55,56,57)           120.4492         estimate D2E/DX2                !
 ! A170  A(55,56,136)          118.6695         estimate D2E/DX2                !
 ! A171  A(57,56,136)          120.8766         estimate D2E/DX2                !
 ! A172  A(37,57,56)           120.8811         estimate D2E/DX2                !
 ! A173  A(37,57,137)          119.2118         estimate D2E/DX2                !
 ! A174  A(56,57,137)          119.9058         estimate D2E/DX2                !
 ! A175  A(31,58,59)           121.197          estimate D2E/DX2                !
 ! A176  A(31,58,129)          119.2754         estimate D2E/DX2                !
 ! A177  A(59,58,129)          119.5259         estimate D2E/DX2                !
 ! A178  A(58,59,60)           119.9784         estimate D2E/DX2                !
 ! A179  A(58,59,128)          119.0858         estimate D2E/DX2                !
 ! A180  A(60,59,128)          120.93           estimate D2E/DX2                !
 ! A181  A(59,60,61)           119.2018         estimate D2E/DX2                !
 ! A182  A(59,60,142)          124.7657         estimate D2E/DX2                !
 ! A183  A(61,60,142)          116.0324         estimate D2E/DX2                !
 ! A184  A(60,61,62)           120.4891         estimate D2E/DX2                !
 ! A185  A(60,61,126)          118.7349         estimate D2E/DX2                !
 ! A186  A(62,61,126)          120.7688         estimate D2E/DX2                !
 ! A187  A(31,62,61)           120.8683         estimate D2E/DX2                !
 ! A188  A(31,62,127)          119.3857         estimate D2E/DX2                !
 ! A189  A(61,62,127)          119.7456         estimate D2E/DX2                !
 ! A190  A(33,63,64)           121.2258         estimate D2E/DX2                !
 ! A191  A(33,63,111)          119.3597         estimate D2E/DX2                !
 ! A192  A(64,63,111)          119.4139         estimate D2E/DX2                !
 ! A193  A(63,64,65)           119.9543         estimate D2E/DX2                !
 ! A194  A(63,64,110)          118.9629         estimate D2E/DX2                !
 ! A195  A(65,64,110)          121.0764         estimate D2E/DX2                !
 ! A196  A(64,65,66)           119.2196         estimate D2E/DX2                !
 ! A197  A(64,65,92)           124.7708         estimate D2E/DX2                !
 ! A198  A(66,65,92)           116.0095         estimate D2E/DX2                !
 ! A199  A(65,66,67)           120.4892         estimate D2E/DX2                !
 ! A200  A(65,66,112)          118.7372         estimate D2E/DX2                !
 ! A201  A(67,66,112)          120.7683         estimate D2E/DX2                !
 ! A202  A(33,67,66)           120.8796         estimate D2E/DX2                !
 ! A203  A(33,67,113)          119.4042         estimate D2E/DX2                !
 ! A204  A(66,67,113)          119.7158         estimate D2E/DX2                !
 ! A205  A(32,68,69)           120.8585         estimate D2E/DX2                !
 ! A206  A(32,68,109)          119.3332         estimate D2E/DX2                !
 ! A207  A(69,68,109)          119.8061         estimate D2E/DX2                !
 ! A208  A(68,69,70)           120.5431         estimate D2E/DX2                !
 ! A209  A(68,69,108)          120.8988         estimate D2E/DX2                !
 ! A210  A(70,69,108)          118.5543         estimate D2E/DX2                !
 ! A211  A(69,70,71)           119.1661         estimate D2E/DX2                !
 ! A212  A(69,70,90)           115.9832         estimate D2E/DX2                !
 ! A213  A(71,70,90)           124.8507         estimate D2E/DX2                !
 ! A214  A(70,71,72)           119.971          estimate D2E/DX2                !
 ! A215  A(70,71,107)          121.0521         estimate D2E/DX2                !
 ! A216  A(72,71,107)          118.9713         estimate D2E/DX2                !
 ! A217  A(32,72,71)           121.2518         estimate D2E/DX2                !
 ! A218  A(32,72,106)          119.372          estimate D2E/DX2                !
 ! A219  A(71,72,106)          119.3745         estimate D2E/DX2                !
 ! A220  A(30,73,74)           121.2208         estimate D2E/DX2                !
 ! A221  A(30,73,130)          119.3383         estimate D2E/DX2                !
 ! A222  A(74,73,130)          119.4381         estimate D2E/DX2                !
 ! A223  A(73,74,75)           119.9442         estimate D2E/DX2                !
 ! A224  A(73,74,131)          118.9497         estimate D2E/DX2                !
 ! A225  A(75,74,131)          121.1008         estimate D2E/DX2                !
 ! A226  A(74,75,76)           119.2197         estimate D2E/DX2                !
 ! A227  A(74,75,148)          124.8171         estimate D2E/DX2                !
 ! A228  A(76,75,148)          115.9631         estimate D2E/DX2                !
 ! A229  A(75,76,77)           120.4735         estimate D2E/DX2                !
 ! A230  A(75,76,132)          118.7177         estimate D2E/DX2                !
 ! A231  A(77,76,132)          120.8001         estimate D2E/DX2                !
 ! A232  A(30,77,76)           120.8883         estimate D2E/DX2                !
 ! A233  A(30,77,133)          119.3953         estimate D2E/DX2                !
 ! A234  A(76,77,133)          119.7162         estimate D2E/DX2                !
 ! A235  A(70,90,91)           117.3756         estimate D2E/DX2                !
 ! A236  A(90,91,123)          111.5595         estimate D2E/DX2                !
 ! A237  A(90,91,124)          111.5229         estimate D2E/DX2                !
 ! A238  A(90,91,125)          105.9317         estimate D2E/DX2                !
 ! A239  A(123,91,124)         109.1508         estimate D2E/DX2                !
 ! A240  A(123,91,125)         109.2918         estimate D2E/DX2                !
 ! A241  A(124,91,125)         109.3058         estimate D2E/DX2                !
 ! A242  A(65,92,93)           117.3358         estimate D2E/DX2                !
 ! A243  A(92,93,114)          111.5977         estimate D2E/DX2                !
 ! A244  A(92,93,115)          111.5099         estimate D2E/DX2                !
 ! A245  A(92,93,116)          105.9341         estimate D2E/DX2                !
 ! A246  A(114,93,115)         109.0942         estimate D2E/DX2                !
 ! A247  A(114,93,116)         109.2847         estimate D2E/DX2                !
 ! A248  A(115,93,116)         109.3449         estimate D2E/DX2                !
 ! A249  A(40,94,97)           117.3997         estimate D2E/DX2                !
 ! A250  A(45,95,96)           117.3917         estimate D2E/DX2                !
 ! A251  A(95,96,117)          111.5739         estimate D2E/DX2                !
 ! A252  A(95,96,118)          111.5576         estimate D2E/DX2                !
 ! A253  A(95,96,119)          105.9214         estimate D2E/DX2                !
 ! A254  A(117,96,118)         109.1183         estimate D2E/DX2                !
 ! A255  A(117,96,119)         109.2971         estimate D2E/DX2                !
 ! A256  A(118,96,119)         109.2943         estimate D2E/DX2                !
 ! A257  A(94,97,120)          105.9229         estimate D2E/DX2                !
 ! A258  A(94,97,121)          111.5666         estimate D2E/DX2                !
 ! A259  A(94,97,122)          111.5609         estimate D2E/DX2                !
 ! A260  A(120,97,121)         109.2816         estimate D2E/DX2                !
 ! A261  A(120,97,122)         109.2991         estimate D2E/DX2                !
 ! A262  A(121,97,122)         109.1308         estimate D2E/DX2                !
 ! A263  A(60,142,143)         117.3338         estimate D2E/DX2                !
 ! A264  A(142,143,150)        105.919          estimate D2E/DX2                !
 ! A265  A(142,143,151)        111.554          estimate D2E/DX2                !
 ! A266  A(142,143,152)        111.4944         estimate D2E/DX2                !
 ! A267  A(150,143,151)        109.326          estimate D2E/DX2                !
 ! A268  A(150,143,152)        109.33           estimate D2E/DX2                !
 ! A269  A(151,143,152)        109.1414         estimate D2E/DX2                !
 ! A270  A(50,144,145)         117.3901         estimate D2E/DX2                !
 ! A271  A(144,145,159)        105.9392         estimate D2E/DX2                !
 ! A272  A(144,145,160)        111.5595         estimate D2E/DX2                !
 ! A273  A(144,145,161)        111.5197         estimate D2E/DX2                !
 ! A274  A(159,145,160)        109.3108         estimate D2E/DX2                !
 ! A275  A(159,145,161)        109.2997         estimate D2E/DX2                !
 ! A276  A(160,145,161)        109.1349         estimate D2E/DX2                !
 ! A277  A(55,146,147)         117.4305         estimate D2E/DX2                !
 ! A278  A(146,147,156)        105.9302         estimate D2E/DX2                !
 ! A279  A(146,147,157)        111.5762         estimate D2E/DX2                !
 ! A280  A(146,147,158)        111.5188         estimate D2E/DX2                !
 ! A281  A(156,147,157)        109.2831         estimate D2E/DX2                !
 ! A282  A(156,147,158)        109.3208         estimate D2E/DX2                !
 ! A283  A(157,147,158)        109.1341         estimate D2E/DX2                !
 ! A284  A(75,148,149)         117.4368         estimate D2E/DX2                !
 ! A285  A(148,149,153)        105.8892         estimate D2E/DX2                !
 ! A286  A(148,149,154)        111.5003         estimate D2E/DX2                !
 ! A287  A(148,149,155)        111.6088         estimate D2E/DX2                !
 ! A288  A(153,149,154)        109.3349         estimate D2E/DX2                !
 ! A289  A(153,149,155)        109.31           estimate D2E/DX2                !
 ! A290  A(154,149,155)        109.1206         estimate D2E/DX2                !
 ! D1    D(5,1,2,3)             -1.3707         estimate D2E/DX2                !
 ! D2    D(5,1,2,18)          -179.6573         estimate D2E/DX2                !
 ! D3    D(6,1,2,3)            120.2186         estimate D2E/DX2                !
 ! D4    D(6,1,2,18)           -58.068          estimate D2E/DX2                !
 ! D5    D(9,1,2,3)           -124.5296         estimate D2E/DX2                !
 ! D6    D(9,1,2,18)            57.1838         estimate D2E/DX2                !
 ! D7    D(2,1,5,4)              0.9562         estimate D2E/DX2                !
 ! D8    D(2,1,5,17)          -178.677          estimate D2E/DX2                !
 ! D9    D(6,1,5,4)           -120.5201         estimate D2E/DX2                !
 ! D10   D(6,1,5,17)            59.8467         estimate D2E/DX2                !
 ! D11   D(9,1,5,4)            124.1294         estimate D2E/DX2                !
 ! D12   D(9,1,5,17)           -55.5038         estimate D2E/DX2                !
 ! D13   D(2,1,6,7)            122.1676         estimate D2E/DX2                !
 ! D14   D(2,1,6,10)           -57.0555         estimate D2E/DX2                !
 ! D15   D(5,1,6,7)           -123.1725         estimate D2E/DX2                !
 ! D16   D(5,1,6,10)            57.6044         estimate D2E/DX2                !
 ! D17   D(9,1,6,7)             -0.4734         estimate D2E/DX2                !
 ! D18   D(9,1,6,10)          -179.6965         estimate D2E/DX2                !
 ! D19   D(2,1,9,8)           -121.6619         estimate D2E/DX2                !
 ! D20   D(2,1,9,25)            59.5216         estimate D2E/DX2                !
 ! D21   D(5,1,9,8)            122.368          estimate D2E/DX2                !
 ! D22   D(5,1,9,25)           -56.4485         estimate D2E/DX2                !
 ! D23   D(6,1,9,8)              0.2603         estimate D2E/DX2                !
 ! D24   D(6,1,9,25)          -178.5562         estimate D2E/DX2                !
 ! D25   D(1,2,3,4)              1.3145         estimate D2E/DX2                !
 ! D26   D(1,2,3,21)          -178.4289         estimate D2E/DX2                !
 ! D27   D(18,2,3,4)           179.7324         estimate D2E/DX2                !
 ! D28   D(18,2,3,21)           -0.011          estimate D2E/DX2                !
 ! D29   D(1,2,18,19)          178.2396         estimate D2E/DX2                !
 ! D30   D(1,2,18,79)           -1.1125         estimate D2E/DX2                !
 ! D31   D(3,2,18,19)            0.1223         estimate D2E/DX2                !
 ! D32   D(3,2,18,79)         -179.2298         estimate D2E/DX2                !
 ! D33   D(2,3,4,5)             -0.6672         estimate D2E/DX2                !
 ! D34   D(2,3,4,14)           179.2585         estimate D2E/DX2                !
 ! D35   D(21,3,4,5)           179.0321         estimate D2E/DX2                !
 ! D36   D(21,3,4,14)           -1.0422         estimate D2E/DX2                !
 ! D37   D(2,3,21,20)           -0.2618         estimate D2E/DX2                !
 ! D38   D(2,3,21,81)         -179.4251         estimate D2E/DX2                !
 ! D39   D(4,3,21,20)         -179.9354         estimate D2E/DX2                !
 ! D40   D(4,3,21,81)            0.9012         estimate D2E/DX2                !
 ! D41   D(3,4,5,1)             -0.2424         estimate D2E/DX2                !
 ! D42   D(3,4,5,17)           179.4183         estimate D2E/DX2                !
 ! D43   D(14,4,5,1)           179.8208         estimate D2E/DX2                !
 ! D44   D(14,4,5,17)           -0.5184         estimate D2E/DX2                !
 ! D45   D(3,4,14,15)          179.8958         estimate D2E/DX2                !
 ! D46   D(3,4,14,82)            0.7892         estimate D2E/DX2                !
 ! D47   D(5,4,14,15)           -0.1847         estimate D2E/DX2                !
 ! D48   D(5,4,14,82)         -179.2913         estimate D2E/DX2                !
 ! D49   D(1,5,17,16)         -179.7371         estimate D2E/DX2                !
 ! D50   D(1,5,17,88)            0.4294         estimate D2E/DX2                !
 ! D51   D(4,5,17,16)            0.6662         estimate D2E/DX2                !
 ! D52   D(4,5,17,88)         -179.1672         estimate D2E/DX2                !
 ! D53   D(1,6,7,8)              0.5206         estimate D2E/DX2                !
 ! D54   D(1,6,7,13)          -179.6856         estimate D2E/DX2                !
 ! D55   D(10,6,7,8)           179.8015         estimate D2E/DX2                !
 ! D56   D(10,6,7,13)           -0.4046         estimate D2E/DX2                !
 ! D57   D(1,6,10,11)          179.8204         estimate D2E/DX2                !
 ! D58   D(1,6,10,89)           -0.019          estimate D2E/DX2                !
 ! D59   D(7,6,10,11)            0.675          estimate D2E/DX2                !
 ! D60   D(7,6,10,89)         -179.1644         estimate D2E/DX2                !
 ! D61   D(6,7,8,9)             -0.3427         estimate D2E/DX2                !
 ! D62   D(6,7,8,22)           179.227          estimate D2E/DX2                !
 ! D63   D(13,7,8,9)           179.8995         estimate D2E/DX2                !
 ! D64   D(13,7,8,22)           -0.5308         estimate D2E/DX2                !
 ! D65   D(6,7,13,12)           -0.3099         estimate D2E/DX2                !
 ! D66   D(6,7,13,86)         -179.3065         estimate D2E/DX2                !
 ! D67   D(8,7,13,12)          179.4274         estimate D2E/DX2                !
 ! D68   D(8,7,13,86)            0.4309         estimate D2E/DX2                !
 ! D69   D(7,8,9,1)              0.0298         estimate D2E/DX2                !
 ! D70   D(7,8,9,25)           178.9369         estimate D2E/DX2                !
 ! D71   D(22,8,9,1)          -179.6028         estimate D2E/DX2                !
 ! D72   D(22,8,9,25)           -0.6957         estimate D2E/DX2                !
 ! D73   D(7,8,22,23)         -179.4836         estimate D2E/DX2                !
 ! D74   D(7,8,22,84)            1.2739         estimate D2E/DX2                !
 ! D75   D(9,8,22,23)            0.0498         estimate D2E/DX2                !
 ! D76   D(9,8,22,84)         -179.1927         estimate D2E/DX2                !
 ! D77   D(1,9,25,24)          179.2829         estimate D2E/DX2                !
 ! D78   D(1,9,25,78)           -0.2828         estimate D2E/DX2                !
 ! D79   D(8,9,25,24)            0.5836         estimate D2E/DX2                !
 ! D80   D(8,9,25,78)         -178.9821         estimate D2E/DX2                !
 ! D81   D(6,10,11,12)          -0.2357         estimate D2E/DX2                !
 ! D82   D(6,10,11,26)         179.6722         estimate D2E/DX2                !
 ! D83   D(89,10,11,12)        179.6053         estimate D2E/DX2                !
 ! D84   D(89,10,11,26)         -0.4868         estimate D2E/DX2                !
 ! D85   D(10,11,12,13)         -0.4747         estimate D2E/DX2                !
 ! D86   D(10,11,12,87)        179.4325         estimate D2E/DX2                !
 ! D87   D(26,11,12,13)        179.6174         estimate D2E/DX2                !
 ! D88   D(26,11,12,87)         -0.4754         estimate D2E/DX2                !
 ! D89   D(10,11,26,34)        -35.146          estimate D2E/DX2                !
 ! D90   D(10,11,26,35)        146.036          estimate D2E/DX2                !
 ! D91   D(12,11,26,34)        144.7607         estimate D2E/DX2                !
 ! D92   D(12,11,26,35)        -34.0573         estimate D2E/DX2                !
 ! D93   D(11,12,13,7)           0.7477         estimate D2E/DX2                !
 ! D94   D(11,12,13,86)        179.7577         estimate D2E/DX2                !
 ! D95   D(87,12,13,7)        -179.1588         estimate D2E/DX2                !
 ! D96   D(87,12,13,86)         -0.1488         estimate D2E/DX2                !
 ! D97   D(4,14,15,16)           0.7306         estimate D2E/DX2                !
 ! D98   D(4,14,15,83)        -179.1772         estimate D2E/DX2                !
 ! D99   D(82,14,15,16)        179.8485         estimate D2E/DX2                !
 ! D100  D(82,14,15,83)         -0.0593         estimate D2E/DX2                !
 ! D101  D(14,15,16,17)         -0.5802         estimate D2E/DX2                !
 ! D102  D(14,15,16,27)        179.5297         estimate D2E/DX2                !
 ! D103  D(83,15,16,17)        179.3284         estimate D2E/DX2                !
 ! D104  D(83,15,16,27)         -0.5617         estimate D2E/DX2                !
 ! D105  D(15,16,17,5)          -0.1188         estimate D2E/DX2                !
 ! D106  D(15,16,17,88)        179.7164         estimate D2E/DX2                !
 ! D107  D(27,16,17,5)         179.7712         estimate D2E/DX2                !
 ! D108  D(27,16,17,88)         -0.3936         estimate D2E/DX2                !
 ! D109  D(15,16,27,36)        -34.7317         estimate D2E/DX2                !
 ! D110  D(15,16,27,37)        144.5969         estimate D2E/DX2                !
 ! D111  D(17,16,27,36)        145.3797         estimate D2E/DX2                !
 ! D112  D(17,16,27,37)        -35.2917         estimate D2E/DX2                !
 ! D113  D(2,18,19,20)           0.0373         estimate D2E/DX2                !
 ! D114  D(2,18,19,28)        -179.7709         estimate D2E/DX2                !
 ! D115  D(79,18,19,20)        179.3974         estimate D2E/DX2                !
 ! D116  D(79,18,19,28)         -0.4108         estimate D2E/DX2                !
 ! D117  D(18,19,20,21)         -0.3141         estimate D2E/DX2                !
 ! D118  D(18,19,20,80)        179.6124         estimate D2E/DX2                !
 ! D119  D(28,19,20,21)        179.4945         estimate D2E/DX2                !
 ! D120  D(28,19,20,80)         -0.579          estimate D2E/DX2                !
 ! D121  D(18,19,28,31)        -40.4251         estimate D2E/DX2                !
 ! D122  D(18,19,28,33)        139.4722         estimate D2E/DX2                !
 ! D123  D(20,19,28,31)        139.7686         estimate D2E/DX2                !
 ! D124  D(20,19,28,33)        -40.3342         estimate D2E/DX2                !
 ! D125  D(19,20,21,3)           0.4266         estimate D2E/DX2                !
 ! D126  D(19,20,21,81)        179.6002         estimate D2E/DX2                !
 ! D127  D(80,20,21,3)        -179.4991         estimate D2E/DX2                !
 ! D128  D(80,20,21,81)         -0.3255         estimate D2E/DX2                !
 ! D129  D(8,22,23,24)           0.695          estimate D2E/DX2                !
 ! D130  D(8,22,23,85)        -179.486          estimate D2E/DX2                !
 ! D131  D(84,22,23,24)        179.9469         estimate D2E/DX2                !
 ! D132  D(84,22,23,85)         -0.2342         estimate D2E/DX2                !
 ! D133  D(22,23,24,25)         -0.8046         estimate D2E/DX2                !
 ! D134  D(22,23,24,29)        179.0501         estimate D2E/DX2                !
 ! D135  D(85,23,24,25)        179.3748         estimate D2E/DX2                !
 ! D136  D(85,23,24,29)         -0.7706         estimate D2E/DX2                !
 ! D137  D(23,24,25,9)           0.1609         estimate D2E/DX2                !
 ! D138  D(23,24,25,78)        179.731          estimate D2E/DX2                !
 ! D139  D(29,24,25,9)        -179.6929         estimate D2E/DX2                !
 ! D140  D(29,24,25,78)         -0.1228         estimate D2E/DX2                !
 ! D141  D(23,24,29,30)        -37.9611         estimate D2E/DX2                !
 ! D142  D(23,24,29,32)        143.4177         estimate D2E/DX2                !
 ! D143  D(25,24,29,30)        141.8913         estimate D2E/DX2                !
 ! D144  D(25,24,29,32)        -36.7298         estimate D2E/DX2                !
 ! D145  D(11,26,34,43)        137.4786         estimate D2E/DX2                !
 ! D146  D(11,26,34,47)        -43.4111         estimate D2E/DX2                !
 ! D147  D(35,26,34,43)        -43.6863         estimate D2E/DX2                !
 ! D148  D(35,26,34,47)        135.424          estimate D2E/DX2                !
 ! D149  D(11,26,35,48)        136.1466         estimate D2E/DX2                !
 ! D150  D(11,26,35,52)        -44.559          estimate D2E/DX2                !
 ! D151  D(34,26,35,48)        -42.6885         estimate D2E/DX2                !
 ! D152  D(34,26,35,52)        136.6059         estimate D2E/DX2                !
 ! D153  D(16,27,36,38)        136.4445         estimate D2E/DX2                !
 ! D154  D(16,27,36,42)        -44.0392         estimate D2E/DX2                !
 ! D155  D(37,27,36,38)        -42.8914         estimate D2E/DX2                !
 ! D156  D(37,27,36,42)        136.6249         estimate D2E/DX2                !
 ! D157  D(16,27,37,53)        136.7063         estimate D2E/DX2                !
 ! D158  D(16,27,37,57)        -43.8149         estimate D2E/DX2                !
 ! D159  D(36,27,37,53)        -43.9572         estimate D2E/DX2                !
 ! D160  D(36,27,37,57)        135.5216         estimate D2E/DX2                !
 ! D161  D(19,28,31,58)        -41.5178         estimate D2E/DX2                !
[...]
 Alpha virt. eigenvalues --    2.36124   2.36419   2.36503   2.36645   2.36751
 Alpha virt. eigenvalues --    2.36822   2.37019   2.37136   2.37336   2.37353
 Alpha virt. eigenvalues --    2.37562   2.37599   2.40095   2.40461   2.40677
 Alpha virt. eigenvalues --    2.40912   2.41856   2.42553   2.42607   2.42958
 Alpha virt. eigenvalues --    2.43117   2.43173   2.44092   2.44196   2.48482
 Alpha virt. eigenvalues --    2.49155   2.49442   2.49837   2.50490   2.50788
 Alpha virt. eigenvalues --    2.50921   2.51713   2.51995   2.52281   2.52508
 Alpha virt. eigenvalues --    2.52799   2.53005   2.53302   2.53960   2.54219
 Alpha virt. eigenvalues --    2.54519   2.54696   2.54962   2.55003   2.55106
 Alpha virt. eigenvalues --    2.55259   2.55521   2.55856   2.56060   2.56098
 Alpha virt. eigenvalues --    2.57289   2.57369   2.57633   2.59276   2.60592
 Alpha virt. eigenvalues --    2.61982   2.62219   2.62488   2.63268   2.63492
 Alpha virt. eigenvalues --    2.63657   2.63913   2.64051   2.64240   2.64416
 Alpha virt. eigenvalues --    2.64681   2.65048   2.65549   2.65835   2.66427
 Alpha virt. eigenvalues --    2.66502   2.66583   2.66719   2.66922   2.67099
 Alpha virt. eigenvalues --    2.67260   2.67346   2.67594   2.67661   2.68381
 Alpha virt. eigenvalues --    2.68598   2.69089   2.69330   2.69645   2.70161
 Alpha virt. eigenvalues --    2.70303   2.70682   2.70838   2.71354   2.71396
 Alpha virt. eigenvalues --    2.72072   2.72473   2.73113   2.73458   2.74186
 Alpha virt. eigenvalues --    2.74314   2.74999   2.75643   2.75686   2.76047
 Alpha virt. eigenvalues --    2.76316   2.76666   2.77449   2.78182   2.78324
 Alpha virt. eigenvalues --    2.78458   2.78530   2.78559   2.78679   2.80183
 Alpha virt. eigenvalues --    2.80407   2.80921   2.81972   2.82526   2.82971
 Alpha virt. eigenvalues --    2.83205   2.83854   2.84656   2.85037   2.85101
 Alpha virt. eigenvalues --    2.85351   2.86705   2.86898   2.87064   2.89466
 Alpha virt. eigenvalues --    2.89734   2.90917   2.91328   2.91401   2.91994
 Alpha virt. eigenvalues --    2.92526   2.93231   2.93446   2.93531   2.94185
 Alpha virt. eigenvalues --    2.95530   2.98004   2.98319   2.98595   2.98771
 Alpha virt. eigenvalues --    2.98792   2.99105   2.99164   3.00162   3.00173
 Alpha virt. eigenvalues --    3.00309   3.00498   3.00652   3.01388   3.01836
 Alpha virt. eigenvalues --    3.02575   3.03576   3.03741   3.06951   3.08191
 Alpha virt. eigenvalues --    3.08707   3.09417   3.10240   3.10674   3.13534
 Alpha virt. eigenvalues --    3.13856   3.15687   3.18110   3.21599   3.22058
 Alpha virt. eigenvalues --    3.24807   3.25486   3.25864   3.26261   3.26506
 Alpha virt. eigenvalues --    3.28120   3.33121   3.33380   3.37532   3.39168
 Alpha virt. eigenvalues --    3.43566   3.43589   3.43783   3.44040   3.44914
 Alpha virt. eigenvalues --    3.44979   3.45035   3.45127   3.53264   3.53407
 Alpha virt. eigenvalues --    4.05767   4.05841   4.05879   4.05906   4.06001
 Alpha virt. eigenvalues --    4.06023   4.06075   4.06209   4.10151   4.10239
 Alpha virt. eigenvalues --    4.11916   4.11944   4.12259   4.12470   4.12906
 Alpha virt. eigenvalues --    4.13000   4.13188   4.13194   4.13553   4.13748
 Alpha virt. eigenvalues --    4.13884   4.13935   4.14042   4.14103   4.14283
 Alpha virt. eigenvalues --    4.14309   4.15533   4.15905   4.16157   4.16801
 Alpha virt. eigenvalues --    4.16843   4.17550   4.18202   4.21900   4.22168
 Alpha virt. eigenvalues --    4.22328   4.23248   4.23706   4.24384   4.24450
 Alpha virt. eigenvalues --    4.24478   4.24632   4.24718   4.24964   4.25129
 Alpha virt. eigenvalues --    4.25148   4.25677   4.25772   4.32457   4.32896
 Alpha virt. eigenvalues --    4.32922   4.32963   4.33716   4.33915   4.34177
 Alpha virt. eigenvalues --    4.34549   4.35495   4.36480   4.36604   4.36816
 Alpha virt. eigenvalues --    4.36927   4.37313   4.37478   4.38094   4.38587
 Alpha virt. eigenvalues --    4.39151   4.39316   4.39409   4.47338   4.47786
 Alpha virt. eigenvalues --    4.47966   4.48215   4.49128   4.50287   4.50735
 Alpha virt. eigenvalues --    4.51919   4.53010   4.56040   4.56171   4.58197
 Alpha virt. eigenvalues --    4.64917   4.77974   4.79236   4.79353   4.79521
 Alpha virt. eigenvalues --    4.79828   4.80128   4.80211   4.80656   4.81234
 Alpha virt. eigenvalues --    4.86198   4.86329   4.90803
          Condensed to atoms (all electrons):
 Mulliken atomic charges:
              1
     1  C   -0.272597
     2  C    0.125074
     3  C    0.072409
     4  C    0.072398
     5  C    0.124587
     6  C    0.125560
     7  C    0.072125
     8  C    0.072309
     9  C    0.124528
    10  C   -0.246284
    11  C    0.294387
    12  C   -0.181185
    13  C   -0.203219
    14  C   -0.204220
    15  C   -0.182391
    16  C    0.296995
    17  C   -0.248552
    18  C   -0.247941
    19  C    0.296744
    20  C   -0.181773
    21  C   -0.204553
    22  C   -0.203919
    23  C   -0.180116
    24  C    0.290655
    25  C   -0.246187
    26  N   -0.662014
    27  N   -0.662372
    28  N   -0.662051
    29  N   -0.662486
    30  C    0.271254
    31  C    0.274573
    32  C    0.285953
    33  C    0.276615
    34  C    0.280558
    35  C    0.272772
    36  C    0.275415
    37  C    0.275788
    38  C   -0.174313
    39  C   -0.206091
    40  C    0.377128
    41  C   -0.184564
    42  C   -0.164259
    43  C   -0.173409
    44  C   -0.205352
    45  C    0.378943
    46  C   -0.192040
    47  C   -0.171274
    48  C   -0.173242
    49  C   -0.206230
    50  C    0.377283
    51  C   -0.184564
    52  C   -0.163468
    53  C   -0.171382
    54  C   -0.205605
    55  C    0.379360
    56  C   -0.192138
    57  C   -0.169287
    58  C   -0.176606
    59  C   -0.214903
    60  C    0.380030
    61  C   -0.183894
    62  C   -0.163306
    63  C   -0.172246
    64  C   -0.205967
    65  C    0.377198
    66  C   -0.183826
    67  C   -0.166989
    68  C   -0.174649
    69  C   -0.193058
    70  C    0.379035
    71  C   -0.204854
    72  C   -0.176861
    73  C   -0.171348
    74  C   -0.206118
    75  C    0.377651
    76  C   -0.184386
    77  C   -0.163343
    78  H    0.149853
    79  H    0.149395
    80  H    0.139355
    81  H    0.126427
    82  H    0.126897
    83  H    0.139252
    84  H    0.127318
    85  H    0.137819
    86  H    0.127191
    87  H    0.139431
    88  H    0.148502
    89  H    0.149128
    90  O   -0.509962
    91  C   -0.213143
    92  O   -0.510432
    93  C   -0.212640
    94  O   -0.510398
    95  O   -0.509629
    96  C   -0.212575
    97  C   -0.212764
    98  H    0.137942
    99  H    0.146275
   100  H    0.141824
   101  H    0.130222
   102  H    0.130839
   103  H    0.143058
   104  H    0.143057
   105  H    0.151857
   106  H    0.143196
   107  H    0.131523
   108  H    0.142178
   109  H    0.149695
   110  H    0.131002
   111  H    0.145038
   112  H    0.137825
   113  H    0.144320
   114  H    0.149249
   115  H    0.150035
   116  H    0.167278
   117  H    0.148604
   118  H    0.150427
   119  H    0.167705
   120  H    0.167636
   121  H    0.149011
   122  H    0.150314
   123  H    0.148945
   124  H    0.151197
   125  H    0.168169
   126  H    0.138067
   127  H    0.143042
   128  H    0.138390
   129  H    0.151043
   130  H    0.146208
   131  H    0.131948
   132  H    0.137645
   133  H    0.141642
   134  H    0.130188
   135  H    0.141181
   136  H    0.143939
   137  H    0.152421
   138  H    0.147008
   139  H    0.139302
   140  H    0.130777
   141  H    0.142785
   142  O   -0.510474
   143  C   -0.214865
   144  O   -0.509905
   145  C   -0.212750
   146  O   -0.509238
   147  C   -0.212676
   148  O   -0.510218
   149  C   -0.213204
   150  H    0.167211
   151  H    0.153328
   152  H    0.151176
   153  H    0.167896
   154  H    0.150104
   155  H    0.150346
   156  H    0.168099
   157  H    0.148665
   158  H    0.150495
   159  H    0.167914
   160  H    0.149004
   161  H    0.150165
 Sum of Mulliken atomic charges =   0.00000
 Mulliken charges with hydrogens summed into heavy atoms:
              1
     1  C   -0.272597
     2  C    0.125074
     3  C    0.072409
     4  C    0.072398
     5  C    0.124587
     6  C    0.125560
     7  C    0.072125
     8  C    0.072309
     9  C    0.124528
    10  C   -0.097156
    11  C    0.294387
    12  C   -0.041754
    13  C   -0.076029
    14  C   -0.077322
    15  C   -0.043139
    16  C    0.296995
    17  C   -0.100050
    18  C   -0.098547
    19  C    0.296744
    20  C   -0.042418
    21  C   -0.078126
    22  C   -0.076601
    23  C   -0.042297
    24  C    0.290655
    25  C   -0.096334
    26  N   -0.662014
    27  N   -0.662372
    28  N   -0.662051
    29  N   -0.662486
    30  C    0.271254
    31  C    0.274573
    32  C    0.285953
    33  C    0.276615
    34  C    0.280558
    35  C    0.272772
    36  C    0.275415
    37  C    0.275788
    38  C   -0.031255
    39  C   -0.075253
    40  C    0.377128
    41  C   -0.046622
    42  C   -0.017985
    43  C   -0.031585
    44  C   -0.075130
    45  C    0.378943
    46  C   -0.048983
    47  C   -0.019417
    48  C   -0.030457
    49  C   -0.075453
    50  C    0.377283
    51  C   -0.045263
    52  C   -0.016460
    53  C   -0.030201
    54  C   -0.075417
    55  C    0.379360
    56  C   -0.048199
    57  C   -0.016867
    58  C   -0.025563
    59  C   -0.076513
    60  C    0.380030
    61  C   -0.045827
    62  C   -0.020265
    63  C   -0.027208
    64  C   -0.074965
    65  C    0.377198
    66  C   -0.046001
    67  C   -0.022669
    68  C   -0.024954
    69  C   -0.050880
    70  C    0.379035
    71  C   -0.073331
    72  C   -0.033666
    73  C   -0.025140
    74  C   -0.074170
    75  C    0.377651
    76  C   -0.046741
    77  C   -0.021701
    90  O   -0.509962
    91  C    0.255169
    92  O   -0.510432
    93  C    0.253923
    94  O   -0.510398
    95  O   -0.509629
    96  C    0.254162
    97  C    0.254198
   142  O   -0.510474
   143  C    0.256850
   144  O   -0.509905
   145  C    0.254333
   146  O   -0.509238
   147  C    0.254584
   148  O   -0.510218
   149  C    0.255142
 Sum of Mulliken charges with hydrogens summed into heavy atoms =   0.00000
 Electronic spatial extent (au):  <R**2>=         110590.9553
 Charge=              0.0000 electrons
 Dipole moment (field-independent basis, Debye):
    X=              1.8538    Y=             -4.5366    Z=              0.5210  Tot=              4.9284
 Quadrupole moment (field-independent basis, Debye-Ang):
   XX=           -457.2782   YY=           -489.8133   ZZ=           -490.3563
   XY=             14.6634   XZ=             -9.6783   YZ=              5.1832
 Traceless Quadrupole moment (field-independent basis, Debye-Ang):
   XX=             21.8710   YY=            -10.6640   ZZ=            -11.2071
   XY=             14.6634   XZ=             -9.6783   YZ=              5.1832
 Octapole moment (field-independent basis, Debye-Ang**2):
  XXX=            -49.4419  YYY=           -168.4977  ZZZ=             22.4742  XYY=            173.1632
  XXY=           -405.8750  XXZ=             48.2430  XZZ=             19.6117  YZZ=           -165.5246
  YYZ=             21.9150  XYZ=             21.4659
 Hexadecapole moment (field-independent basis, Debye-Ang**3):
 XXXX=         -58659.1796 YYYY=         -56150.4071 ZZZZ=         -22622.2408 XXXY=            388.2905
 XXXZ=           -496.8269 YYYX=            732.3831 YYYZ=           -154.6092 ZZZX=              2.1165
 ZZZY=            165.2510 XXYY=         -18347.4640 XXZZ=         -12246.8167 YYZZ=         -12091.0243
 XXYZ=            605.2967 YYXZ=           1053.9853 ZZXY=            188.5470
 N-N= 1.619527800768D+04 E-N=-4.156438734230D+04  KE= 3.911079370046D+03
 Leave Link  601 at Wed Aug  6 20:29:51 2014, MaxMem= 2147483648 cpu:      51.4
 (Enter /opt/g09/l9999.exe)
 1\1\GINC-CHPC-SCANDIUM\FOpt\RB3LYP\6-31G(d)\C81H68N4O8\JARVIST\06-Aug-
 2014\0\\#p opt b3lyp/6-31g*\\Auto Spiro\\0,1\C,12.6706529799,11.919736
 525,12.5986955219\C,11.3653409918,11.2313708996,12.1815009827\C,11.600
 1903297,9.8804903911,11.8580979519\C,13.0233813297,9.5916660375,12.043
 9041815\C,13.6728562671,10.7661697626,12.4724846184\C,13.0264877558,13
 .1394418221,11.7397780737\C,13.1454839131,14.2911351216,12.5423061459\
 C,12.8983000381,13.9217669851,13.937054101\C,12.6148732272,12.54321212
 29,13.9985111341\C,13.2039228003,13.1960084578,10.3667753618\C,13.5212
 153048,14.4289357932,9.7628858312\C,13.6472123467,15.5784072294,10.567
 538501\C,13.4538455617,15.5158112916,11.9452933156\C,13.766022375,8.42
 05556342,11.8750424038\C,15.1367009181,8.4338041917,12.1227926175\C,15
 .7856469742,9.6059690307,12.5583267421\C,15.0327821159,10.7838592938,1
 2.7360311135\C,10.098865398,11.7854236188,12.0919817488\C,9.0193364952
 ,10.9777445642,11.6819637669\C,9.2543153725,9.6256145447,11.3631968619
 \C,10.5335803609,9.0801040105,11.4415898568\C,12.9059231227,14.6751094
 409,15.1136515073\C,12.6260002279,14.0535509069,16.3279974587\C,12.351
 0060547,12.6735194202,16.3919508797\C,12.3495526293,11.9148476218,15.2
 050167836\N,13.7095780926,14.5144368916,8.3603464265\N,17.1798803477,9
 .6011701108,12.8145470026\N,7.7125195668,11.5199562129,11.5951973413\N
 ,12.0805880648,12.0591693154,17.6420420438\C,12.8428915182,12.41953733
 85,18.7889612404\C,7.2511617815,12.4378180689,12.5808986406\C,11.06959
 81846,11.0661645465,17.7545376359\C,6.8407594829,11.1364651921,10.5383
 475288\C,14.4003679136,13.4847109787,7.6630814058\C,13.2263934788,15.6
 454452005,7.6438302769\C,17.7965249529,8.4678538365,13.4146393946\C,17
 .9779278036,10.7242631131,12.4571478954\C,19.0065394508,7.9634593486,1
 2.9245382546\C,19.6283441732,6.8651239707,13.5229102755\C,19.028367081
 8,6.2343273629,14.6178375507\C,17.8100201473,6.7262313092,15.108846204
 \C,17.2096046895,7.8320433376,14.5240353365\C,13.9315265554,13.0113754
 165,6.4322482799\C,14.6204263723,12.0223774622,5.7264522097\C,15.78899
 39675,11.4694292102,6.2603823242\C,16.2589744813,11.9282300735,7.49979
 25336\C,15.5816137893,12.926823167,8.1856644092\C,14.0226174836,16.288
 2831875,6.6893490689\C,13.5446237737,17.3854355893,5.9689526672\C,12.2
 571295557,17.8744631038,6.2145986853\C,11.4560644137,17.2428521538,7.1
 773724709\C,11.929214284,16.1392748071,7.8727895472\C,18.9387326224,11
 .2319730792,13.3385829075\C,19.7428379804,12.318086281,12.9853757062\C
 ,19.5779451268,12.9326067614,11.7396558128\C,18.6094440101,12.43720746
 61,10.8539729733\C,17.8288774787,11.3438910218,11.2030400648\C,7.47087
 32217,12.2027373481,13.9429747669\C,7.024521273,13.1032691369,14.91308
 67444\C,6.3233442606,14.2521286388,14.5298176364\C,6.0886767227,14.488
 7982289,13.1676081814\C,6.5545915584,13.601003602,12.2079993377\C,7.30
 03164795,11.0543847156,9.2185004757\C,6.4496181302,10.6721118962,8.178
 9830984\C,5.1055917646,10.388377815,8.4446464519\C,4.6337606126,10.480
 0610135,9.7619980367\C,5.4901602737,10.8376710042,10.7936948659\C,9.83
 28215389,11.2196293437,17.1004223341\C,8.8422652284,10.2547986786,17.2
 184923381\C,9.0462851227,9.1152203757,18.0107223044\C,10.2682368065,8.
 9549269817,18.6715202264\C,11.2698701652,9.9182792812,18.53024605\C,14
 .2360085615,12.5330798314,18.7191934387\C,14.9888795825,12.8983754977,
 19.8374551878\C,14.3524720765,13.1335645279,21.0609311089\C,12.9575779
 347,13.010328883,21.1429298799\C,12.2139726539,12.6693862292,20.022001
 5976\H,12.1460730917,10.8492566914,15.2457634226\H,9.9296646485,12.830
 5834781,12.331323983\H,8.419488702,9.0039006771,11.0566130473\H,10.686
 6221102,8.0325481949,11.1939812784\H,13.2903521649,7.5029356747,11.537
 7783731\H,15.7208055322,7.531001383,11.9770719175\H,13.1129687106,15.7
 421652673,15.0906964311\H,12.6171699076,14.6345080615,17.2446492922\H,
 13.5589093833,16.4170894085,12.5441713369\H,13.9012433757,16.523659627
 5,10.099039003\H,15.521541715,11.6902028767,13.0794863388\H,13.0966198
 023,12.3066624532,9.7535503351\O,8.0004464371,8.2354929553,18.07121530
 65\C,8.1639191422,7.0596114514,18.8447457169\O,4.1827777516,10.0173298
 006,7.5047155866\C,4.6073186718,9.9196527122,6.1566365724\O,19.5409563
 987,5.1484023474,15.2740002199\O,16.5385986791,10.4937331729,5.6622263
 81\C,16.1005933783,9.9896656248,4.4127878032\C,20.7645152105,4.6057508
 002,14.8094505832\H,17.3580433763,6.2329713329,15.9639479487\H,16.2735
 436394,8.2115541253,14.921592851\H,13.0193833707,13.4266276529,6.01519
 81587\H,14.2264680501,11.6858698597,4.7740765663\H,20.5671852953,6.506
 7191904,13.1159807955\H,19.4729563059,8.4386813675,12.0672509676\H,17.
 1720126466,11.4966110194,7.8989557882\H,15.9628321888,13.2801403114,9.
 1386944606\H,12.2189911955,9.776949343,19.037439375\H,10.4622585821,8.
 0827407897,19.2855640907\H,7.8876610846,10.3688758593,16.7133476291\H,
 9.6572357166,12.1002098204,16.4903600506\H,6.8446762087,10.616665245,7
 .1708297589\H,8.3379635777,11.2871928856,9.0005796455\H,3.5905144809,1
 0.2511735909,9.9569005345\H,5.1154997799,10.8927574059,11.8108873015\H
 ,5.395975019,9.1648285105,6.0330428536\H,4.9716390088,10.8832642402,5.
 7750999406\H,3.7275553019,9.6166094978,5.5854425353\H,16.0678095519,10
 .7766910313,3.646893576\H,15.108991461,9.5229915369,4.4887340626\H,16.
 8320169061,9.2337689142,4.1201641971\H,20.9858500346,3.7597376388,15.4
 631333886\H,21.5829717009,5.3358636153,14.8738295864\H,20.6832613714,4
 .2502498828,13.7731957803\H,8.345785388,7.2924317004,19.9029213471\H,8
 .9878330527,6.4381941234,18.4683502419\H,7.226574877,6.5072589083,18.7
 541808737\H,5.5499225779,15.3871205198,12.882247275\H,6.3774627743,13.
 8014678093,11.1559554799\H,7.2152782164,12.8877115436,15.9584656603\H,
 8.0047753103,11.3086330161,14.2497783018\H,14.7389022504,12.3392863897
 ,17.7768614458\H,16.0657468349,12.9798556367,19.7419944475\H,12.474794
 2382,13.2027709825,22.0961677071\H,11.1338065191,12.5889086284,20.0942
 736014\H,20.478867764,12.6799683854,13.6944306098\H,19.0657895899,10.7
 681240353,14.3118261925\H,18.4978844896,12.9178925243,9.8866734193\H,1
 7.0894810851,10.9631772788,10.5052672053\H,11.295134083,15.650220495,8
 .6056838063\H,10.4558095828,17.626559565,7.3533568928\H,14.1905164882,
 17.8539070309,5.2348700686\H,15.0275623014,15.9232283035,6.5015998055\
 O,5.8322092038,15.1924953732,15.3925977845\C,6.0488814933,15.001506349
 4,16.780395624\O,11.6917927433,18.9453471751,5.5776470654\C,12.4631831
 961,19.6233033576,4.601669456\O,20.3015025343,14.0043506201,11.2936643
 033\C,21.2789268438,14.554752884,12.1591063148\O,14.9893153749,13.4851
 511906,22.219606003\C,16.3998624013,13.617374244,22.1905825288\H,5.588
 6692556,15.8580864803,17.276781191\H,7.1197042066,14.974525196,17.0234
 174832\H,5.5763152878,14.0779056709,17.1412214452\H,16.6962122391,13.9
 012242765,23.2022915905\H,16.719523028,14.3984971918,21.4873585894\H,1
 6.8903006619,12.6718084552,21.9220311277\H,21.7252918783,15.3900899583
 ,11.6160441689\H,22.0615503725,13.823746951,12.4045713105\H,20.8316422
 205,14.9266528337,13.0909265014\H,11.8308652101,20.4299275414,4.225489
 4546\H,12.7375761903,18.9608329039,3.7692824494\H,13.3776760837,20.052
 1954824,5.0336088177\\Version=EM64L-G09RevA.02\State=1-A\HF=-3948.2963
 424\RMSD=3.989e-09\RMSF=2.123e-06\Dipole=1.8552789,-0.3760849,-0.41961
 8\Quadrupole=-9.0494179,-9.843828,18.8932459,5.1139905,7.90829,-5.2206
 909\PG=C01 [X(C81H68N4O8)]\\@


 THE UNDERLYING PHYSICAL LAWS NECESSARY FOR THE 
 MATHEMATICAL THEORY OF A LARGE PART OF PHYSICS AND THE
 WHOLE OF CHEMISTRY ARE THUS COMPLETELY KNOWN, AND THE
 DIFFICULTY IS ONLY THAT THE EXACT APPLICATION OF THESE
 LAWS LEADS TO EQUATIONS MUCH TOO COMPLICATED 
 TO BE SOLUBLE.

                                        -- P. A. M. DIRAC, 1929
 Job cpu time:  3 days 10 hours  8 minutes 35.0 seconds.
 File lengths (MBytes):  RWF=   1450 Int=      0 D2E=      0 Chk=    144 Scr=      1
 Normal termination of Gaussian 09 at Wed Aug  6 20:29:51 2014.
