 Entering Gaussian System, Link 0=g09
 Input=b3lyp-631gs_opt/HF_10.com
 Output=b3lyp-631gs_opt/HF_10.log
 Initial command:
 /opt/g09/l1.exe /home/jarvist/super_spiro/Gau-1436.inp -scrdir=/home/jarvist/super_spiro/
 Default is to use a total of   8 processors:
                                8 via shared-memory
                                1 via Linda
 Entering Link 1 = /opt/g09/l1.exe PID=      1438.
  
 Copyright (c) 1988,1990,1992,1993,1995,1998,2003,2009, Gaussian, Inc.
                  All Rights Reserved.
  
 This is part of the Gaussian(R) 09 program.  It is based on
 the Gaussian(R) 03 system (copyright 2003, Gaussian, Inc.),
 the Gaussian(R) 98 system (copyright 1998, Gaussian, Inc.),
 the Gaussian(R) 94 system (copyright 1995, Gaussian, Inc.),
 the Gaussian 92(TM) system (copyright 1992, Gaussian, Inc.),
 the Gaussian 90(TM) system (copyright 1990, Gaussian, Inc.),
 the Gaussian 88(TM) system (copyright 1988, Gaussian, Inc.),
 the Gaussian 86(TM) system (copyright 1986, Carnegie Mellon
 University), and the Gaussian 82(TM) system (copyright 1983,
 Carnegie Mellon University). Gaussian is a federally registered
 trademark of Gaussian, Inc.
  
 This software contains proprietary and confidential information,
 including trade secrets, belonging to Gaussian, Inc.
  
 This software is provided under written license and may be
 used, copied, transmitted, or stored only in accord with that
 written license.
  
 The following legend is applicable only to US Government
 contracts under FAR:
  
                    RESTRICTED RIGHTS LEGEND
  
 Use, reproduction and disclosure by the US Government is
 subject to restrictions as set forth in subparagraphs (a)
 and (c) of the Commercial Computer Software - Restricted
 Rights clause in FAR 52.227-19.
  
 Gaussian, Inc.
 340 Quinnipiac St., Bldg. 40, Wallingford CT 06492
  
  
 ---------------------------------------------------------------
 Warning -- This program may not be used in any manner that
 competes with the business of Gaussian, Inc. or will provide
 assistance to any competitor of Gaussian, Inc.  The licensee
 of this program is prohibited from giving any competitor of
 Gaussian, Inc. access to this program.  By using this program,
 the user acknowledges that Gaussian, Inc. is engaged in the
 business of creating and licensing software in the field of
 computational chemistry and represents and warrants to the
 licensee that it is not a competitor of Gaussian, Inc. and that
 it will not use this program in any manner prohibited above.
 ---------------------------------------------------------------
  

 Cite this work as:
 Gaussian 09, Revision A.02,
 M. J. Frisch, G. W. Trucks, H. B. Schlegel, G. E. Scuseria, 
 M. A. Robb, J. R. Cheeseman, G. Scalmani, V. Barone, B. Mennucci, 
 G. A. Petersson, H. Nakatsuji, M. Caricato, X. Li, H. P. Hratchian, 
 A. F. Izmaylov, J. Bloino, G. Zheng, J. L. Sonnenberg, M. Hada, 
 M. Ehara, K. Toyota, R. Fukuda, J. Hasegawa, M. Ishida, T. Nakajima, 
 Y. Honda, O. Kitao, H. Nakai, T. Vreven, J. A. Montgomery, Jr., 
 J. E. Peralta, F. Ogliaro, M. Bearpark, J. J. Heyd, E. Brothers, 
 K. N. Kudin, V. N. Staroverov, R. Kobayashi, J. Normand, 
 K. Raghavachari, A. Rendell, J. C. Burant, S. S. Iyengar, J. Tomasi, 
 M. Cossi, N. Rega, J. M. Millam, M. Klene, J. E. Knox, J. B. Cross, 
 V. Bakken, C. Adamo, J. Jaramillo, R. Gomperts, R. E. Stratmann, 
 O. Yazyev, A. J. Austin, R. Cammi, C. Pomelli, J. W. Ochterski, 
 R. L. Martin, K. Morokuma, V. G. Zakrzewski, G. A. Voth, 
 P. Salvador, J. J. Dannenberg, S. Dapprich, A. D. Daniels, 
 O. Farkas, J. B. Foresman, J. V. Ortiz, J. Cioslowski, 
 and D. J. Fox, Gaussian, Inc., Wallingford CT, 2009.
 
 ******************************************
 Gaussian 09:  EM64L-G09RevA.02 11-Jun-2009
                 6-Aug-2014 
 ******************************************
 %mem=16GB
 %nprocs=24
 Will use up to   24 processors via shared memory.
 Default route:  MaxDisk=100GB
 -------------------
 #p opt b3lyp/6-31g*
 -------------------
 1/14=-1,18=20,19=15,26=3,38=1/1,3;
 2/9=110,12=2,17=6,18=5,40=1/2;
 3/5=1,6=6,7=1,11=2,16=1,25=1,30=1,71=1,74=-5/1,2,3;
 4//1;
 5/5=2,38=5/2;
 6/7=2,8=2,9=2,10=2,28=1/1;
 7//1,2,3,16;
 1/14=-1,18=20,19=15/3(2);
 2/9=110/2;
 99//99;
 2/9=110/2;
 3/5=1,6=6,7=1,11=2,16=1,25=1,30=1,71=1,74=-5/1,2,3;
 4/5=5,16=3/1;
 5/5=2,38=5/2;
 7//1,2,3,16;
 1/14=-1,18=20,19=15/3(-5);
 2/9=110/2;
 6/7=2,8=2,9=2,10=2,19=2,28=1/1;
 99/9=1/99;
 Leave Link    1 at Wed Aug  6 12:00:08 2014, MaxMem= 2147483648 cpu:       2.0
 (Enter /opt/g09/l101.exe)
 ----------
 Auto Spiro
 ----------
 Symbolic Z-matrix:
 Charge =  0 Multiplicity = 1
 C                     12.84889   11.66316   12.80352 
 C                     11.54934   10.97699   12.37817 
 C                     11.79289   9.63139   12.0275 
 C                     13.2106   9.34416   12.21893 
 C                     13.85292   10.51499   12.67373 
 C                     13.22178   12.87294   11.94142 
 C                     13.38021   14.02088   12.7454 
 C                     13.13042   13.65971   14.13598 
 C                     12.80549   12.28796   14.2 
 C                     13.40184   12.91524   10.56888 
 C                     13.77067   14.13252   9.9589 
 C                     13.92543   15.28218   10.76263 
 C                     13.72692   15.23324   12.13984 
 C                     13.96718   8.18193   12.03368 
 C                     15.33554   8.19788   12.29749 
 C                     15.97354   9.36692   12.75967 
 C                     15.21013   10.53821   12.94425 
 C                     10.28171   11.52755   12.29791 
 C                     9.20674   10.72804   11.85656 
 C                     9.44952   9.38393   11.50491 
 C                     10.72856   8.83876   11.58478 
 C                     13.1726   14.40738   15.318 
 C                     12.8864   13.78985   16.53206 
 C                     12.56259   12.41852   16.59652 
 C                     12.52787   11.6638   15.40575 
 N                     13.98371   14.21804   8.56371 
 N                     17.36446   9.39327   13.02437 
 N                     7.90521   11.27465   11.79164 
 N                     12.29529   11.8219   17.85 
 C                     13.08007   12.20396   18.97233 
 C                     7.47235   12.13676   12.83629 
 C                     11.37352   10.75537   17.98691 
 C                     6.97667   10.85912   10.80586 
 C                     14.41226   13.09471   7.807 
 C                     13.58336   15.39444   7.87035 
 C                     18.05961   8.2368    13.46121 
 C                     18.11251   10.53614   12.62295 
 C                     19.3469   7.94675   12.99371 
 C                     20.04899   6.82832   13.45006 
 C                     19.46177   5.96385   14.37972 
 C                     18.17052   6.24403   14.85174 
 C                     17.48595   7.366     14.40845 
 C                     13.88622   12.84072   6.53552 
 C                     14.3301   11.75951   5.77034 
 C                     15.30496   10.89535   6.27952 
 C                     15.83595   11.14023   7.55504 
 C                     15.40441   12.22668   8.30156 
 C                     14.45219   16.07813   6.99358 
 C                     13.99354   17.17737   6.25375 
 C                     12.68326   17.63805   6.40517 
 C                     11.82249   16.99236   7.3067 
 C                     12.2739   15.88742   8.01154 
 C                     18.98119   11.21507   13.50273 
 C                     19.7645   12.28279   13.04087 
 C                     19.66623   12.71625   11.71665 
 C                     18.77661   12.07339   10.84164 
 C                     18.0281   11.00024   11.29799 
 C                     7.56084   11.74288   14.17051 
 C                     7.17196   12.57383   15.22466 
 C                     6.6537    13.83737   14.92766 
 C                     6.54198   14.25993   13.59361 
 C                     6.95907   13.43107   12.5528 
 C                     7.38101   10.62548   9.48456 
 C                     6.46762   10.22271   8.50946 
 C                     5.11466   10.06674   8.83755 
 C                     4.69834   10.3151   10.15214 
 C                     5.61626   10.69725   11.12216 
 C                     10.17321   10.73504   17.2505 
 C                     9.26043   9.7032    17.40894 
 C                     9.50357   8.6654    18.3225 
 C                     10.68634   8.67973   19.06776 
 C                     11.61209   9.71217   18.88922 
 C                     14.47179   12.13517   18.93169 
 C                     15.27317   12.52045   20.01023 
 C                     14.65513   12.96887   21.18066 
 C                     13.2551   13.04648   21.25478 
 C                     12.46884   12.68369   20.16242 
 H                     12.29306   10.60021   15.44209 
 H                     10.10423   12.56875   12.56728 
 H                     8.61585   8.76569   11.17487 
 H                     10.88412   7.79288   11.3166 
 H                     13.50203   7.26474   11.66951 
 H                     15.92748   7.29766   12.13912 
 H                     13.41472   15.47086   15.2988 
 H                     12.90871   14.36786   17.45508 
 H                     13.85788   16.13839   12.73439 
 H                     14.20227   16.22308   10.28887 
 H                     15.69396   11.45089   13.29253 
 H                     13.26133   12.02128   9.96236 
 O                     8.53117   7.70164   18.40933 
 C                     8.75779   6.62728   19.31185 
 O                     4.13515   9.68307   7.95563 
 C                     4.53029   9.42231   6.61568 
 O                     20.05651   4.8373    14.88761 
 O                     15.80425   9.80145   5.6212 
 C                     15.28391   9.52558   4.32706 
 C                     21.3642   4.52534   14.42558 
 H                     17.72147   5.57236   15.58297 
 H                     16.48738   7.57163   14.79281 
 H                     13.12311   13.5035   6.12942 
 H                     21.04915   6.64269   13.0641 
 H                     19.81407   8.60813   12.26504 
 H                     16.60111   10.46621   7.94036 
 H                     15.83284   12.40541   9.28731 
 H                     12.53438   9.70679   19.46951 
 H                     10.90953   7.89022   19.78258 
 H                     8.33375   9.68462   16.83501 
 H                     9.96037   11.53955   16.54748 
 H                     6.82301   10.05011   7.4955 
 H                     8.42664   10.76344   9.21222 
 H                     3.64463   10.19039   10.4009 
 H                     5.27894   10.87538   12.14298 
 H                     5.2648    8.60216   6.56206 
 H                     4.95618   10.31831   6.13531 
 H                     3.61911   9.1269    6.085 
 H                     15.48099   10.35335   3.62641 
 H                     14.19951   9.33077   4.36002 
 H                     15.8025   8.62622   3.97923 
 H                     21.65792   3.60992   14.94961 
 H                     22.08089   5.32787   14.66506 
 H                     21.37738   4.34299   13.33842 
 H                     8.85206   6.98328   20.35115 
 H                     9.66205   6.05689   19.04337 
 H                     7.88197   5.97535   19.23035 
 H                     6.14764   15.25565   13.40532 
 O                     6.92128   13.78615   11.23923 
 H                     7.2682    12.22419   16.2495 
 H                     7.96147   10.75192   14.38549 
 H                     14.93997   11.77413   18.01581 
 H                     16.35498   12.45216   19.92732 
 H                     12.8128   13.41659   22.17655 
 O                     11.10993   12.76788   20.14642 
 H                     20.42313   12.76273   13.76103 
 O                     19.17677   10.8514   14.81347 
 H                     18.70404   12.41592   9.8104 
 H                     17.3539   10.47998   10.61724 
 H                     11.59914   15.36703   8.69148 
 H                     10.80293   17.35755   7.42163 
 H                     14.70279   17.65475   5.58147 
 O                     15.74356   15.67628   6.74726 
 O                     6.22953   14.74392   15.86158 
 C                     6.33912   14.36984   17.23116 
 O                     12.15832   18.70745   5.732 
 C                     13.00686   19.38549   4.81263 
 O                     20.38049   13.75755   11.19014 
 C                     21.29224   14.43069   12.05087 
 O                     15.31881   13.36138   22.31214 
 C                     16.74105   13.30594   22.28842 
 H                     5.96488   15.22397   17.80469 
 H                     7.38542   14.16979   17.51153 
 H                     5.72715   13.48176   17.45643 
 H                     17.07083   13.65126   23.27359 
 H                     17.15717   13.9663   21.51091 
 H                     17.1024   12.27853   22.1226 
 H                     21.76565   15.20562   11.43943 
 H                     22.0655   13.74614   12.43499 
 H                     20.77204   14.90217   12.90001 
 H                     12.40153   20.19008   4.38319 
 H                     13.34794   18.71508   4.00769 
 H                     13.88451   19.81922   5.31794 
 C                     10.45768   13.21879   21.3282 
 C                     18.01918   10.8562   15.66156 
 H                     13.89993   11.6014   4.78365 
 C                     16.63666   15.69517   7.87001 
 C                     6.40205   15.07043   10.91259 
 H                     6.46057   15.14538   9.82223 
 H                     7.00015   15.87533   11.3688 
 H                     5.35231   15.17154   11.23023 
 H                     9.38667   13.19501   21.1032 
 H                     10.75581   14.24752   21.58668 
 H                     10.6665   12.55478   22.18159 
 H                     18.39745   10.70698   16.67888 
 H                     17.31738   10.04991   15.41155 
 H                     17.50052   11.82597   15.60119 
 H                     16.7299   16.7182   8.26819 
 H                     17.60723   15.36346   7.48653 
 H                     16.31027   15.01878   8.6709 
 
 NAtoms=    177 NQM=    177 NQMF=      0 NMic=      0 NMicF=      0 NTot=    177.
                    Isotopes and Nuclear Properties:
 (Nuclear quadrupole moments (NQMom) in fm**2, nuclear magnetic moments (NMagM)
  in nuclear magnetons)

  Atom         1           2           3           4           5           6           7           8           9          10
 IAtWgt=          12          12          12          12          12          12          12          12          12          12
 AtmWgt=  12.0000000  12.0000000  12.0000000  12.0000000  12.0000000  12.0000000  12.0000000  12.0000000  12.0000000  12.0000000
 NucSpn=           0           0           0           0           0           0           0           0           0           0
 AtZEff=   0.0000000   0.0000000   0.0000000   0.0000000   0.0000000   0.0000000   0.0000000   0.0000000   0.0000000   0.0000000
 NQMom=    0.0000000   0.0000000   0.0000000   0.0000000   0.0000000   0.0000000   0.0000000   0.0000000   0.0000000   0.0000000
 NMagM=    0.0000000   0.0000000   0.0000000   0.0000000   0.0000000   0.0000000   0.0000000   0.0000000   0.0000000   0.0000000

  Atom        11          12          13          14          15          16          17          18          19          20
 IAtWgt=          12          12          12          12          12          12          12          12          12          12
 AtmWgt=  12.0000000  12.0000000  12.0000000  12.0000000  12.0000000  12.0000000  12.0000000  12.0000000  12.0000000  12.0000000
 NucSpn=           0           0           0           0           0           0           0           0           0           0
 AtZEff=   0.0000000   0.0000000   0.0000000   0.0000000   0.0000000   0.0000000   0.0000000   0.0000000   0.0000000   0.0000000
 NQMom=    0.0000000   0.0000000   0.0000000   0.0000000   0.0000000   0.0000000   0.0000000   0.0000000   0.0000000   0.0000000
 NMagM=    0.0000000   0.0000000   0.0000000   0.0000000   0.0000000   0.0000000   0.0000000   0.0000000   0.0000000   0.0000000

  Atom        21          22          23          24          25          26          27          28          29          30
 IAtWgt=          12          12          12          12          12          14          14          14          14          12
 AtmWgt=  12.0000000  12.0000000  12.0000000  12.0000000  12.0000000  14.0030740  14.0030740  14.0030740  14.0030740  12.0000000
 NucSpn=           0           0           0           0           0           2           2           2           2           0
 AtZEff=   0.0000000   0.0000000   0.0000000   0.0000000   0.0000000   0.0000000   0.0000000   0.0000000   0.0000000   0.0000000
 NQMom=    0.0000000   0.0000000   0.0000000   0.0000000   0.0000000   2.0440000   2.0440000   2.0440000   2.0440000   0.0000000
 NMagM=    0.0000000   0.0000000   0.0000000   0.0000000   0.0000000   0.4037610   0.4037610   0.4037610   0.4037610   0.0000000

  Atom        31          32          33          34          35          36          37          38          39          40
 IAtWgt=          12          12          12          12          12          12          12          12          12          12
 AtmWgt=  12.0000000  12.0000000  12.0000000  12.0000000  12.0000000  12.0000000  12.0000000  12.0000000  12.0000000  12.0000000
 NucSpn=           0           0           0           0           0           0           0           0           0           0
 AtZEff=   0.0000000   0.0000000   0.0000000   0.0000000   0.0000000   0.0000000   0.0000000   0.0000000   0.0000000   0.0000000
 NQMom=    0.0000000   0.0000000   0.0000000   0.0000000   0.0000000   0.0000000   0.0000000   0.0000000   0.0000000   0.0000000
 NMagM=    0.0000000   0.0000000   0.0000000   0.0000000   0.0000000   0.0000000   0.0000000   0.0000000   0.0000000   0.0000000

  Atom        41          42          43          44          45          46          47          48          49          50
 IAtWgt=          12          12          12          12          12          12          12          12          12          12
 AtmWgt=  12.0000000  12.0000000  12.0000000  12.0000000  12.0000000  12.0000000  12.0000000  12.0000000  12.0000000  12.0000000
 NucSpn=           0           0           0           0           0           0           0           0           0           0
 AtZEff=   0.0000000   0.0000000   0.0000000   0.0000000   0.0000000   0.0000000   0.0000000   0.0000000   0.0000000   0.0000000
 NQMom=    0.0000000   0.0000000   0.0000000   0.0000000   0.0000000   0.0000000   0.0000000   0.0000000   0.0000000   0.0000000
 NMagM=    0.0000000   0.0000000   0.0000000   0.0000000   0.0000000   0.0000000   0.0000000   0.0000000   0.0000000   0.0000000

  Atom        51          52          53          54          55          56          57          58          59          60
 IAtWgt=          12          12          12          12          12          12          12          12          12          12
 AtmWgt=  12.0000000  12.0000000  12.0000000  12.0000000  12.0000000  12.0000000  12.0000000  12.0000000  12.0000000  12.0000000
 NucSpn=           0           0           0           0           0           0           0           0           0           0
 AtZEff=   0.0000000   0.0000000   0.0000000   0.0000000   0.0000000   0.0000000   0.0000000   0.0000000   0.0000000   0.0000000
 NQMom=    0.0000000   0.0000000   0.0000000   0.0000000   0.0000000   0.0000000   0.0000000   0.0000000   0.0000000   0.0000000
 NMagM=    0.0000000   0.0000000   0.0000000   0.0000000   0.0000000   0.0000000   0.0000000   0.0000000   0.0000000   0.0000000

  Atom        61          62          63          64          65          66          67          68          69          70
 IAtWgt=          12          12          12          12          12          12          12          12          12          12
 AtmWgt=  12.0000000  12.0000000  12.0000000  12.0000000  12.0000000  12.0000000  12.0000000  12.0000000  12.0000000  12.0000000
 NucSpn=           0           0           0           0           0           0           0           0           0           0
 AtZEff=   0.0000000   0.0000000   0.0000000   0.0000000   0.0000000   0.0000000   0.0000000   0.0000000   0.0000000   0.0000000
 NQMom=    0.0000000   0.0000000   0.0000000   0.0000000   0.0000000   0.0000000   0.0000000   0.0000000   0.0000000   0.0000000
 NMagM=    0.0000000   0.0000000   0.0000000   0.0000000   0.0000000   0.0000000   0.0000000   0.0000000   0.0000000   0.0000000

  Atom        71          72          73          74          75          76          77          78          79          80
 IAtWgt=          12          12          12          12          12          12          12           1           1           1
 AtmWgt=  12.0000000  12.0000000  12.0000000  12.0000000  12.0000000  12.0000000  12.0000000   1.0078250   1.0078250   1.0078250
 NucSpn=           0           0           0           0           0           0           0           1           1           1
 AtZEff=   0.0000000   0.0000000   0.0000000   0.0000000   0.0000000   0.0000000   0.0000000   0.0000000   0.0000000   0.0000000
 NQMom=    0.0000000   0.0000000   0.0000000   0.0000000   0.0000000   0.0000000   0.0000000   0.0000000   0.0000000   0.0000000
 NMagM=    0.0000000   0.0000000   0.0000000   0.0000000   0.0000000   0.0000000   0.0000000   2.7928460   2.7928460   2.7928460

  Atom        81          82          83          84          85          86          87          88          89          90
 IAtWgt=           1           1           1           1           1           1           1           1           1          16
 AtmWgt=   1.0078250   1.0078250   1.0078250   1.0078250   1.0078250   1.0078250   1.0078250   1.0078250   1.0078250  15.9949146
 NucSpn=           1           1           1           1           1           1           1           1           1           0
 AtZEff=   0.0000000   0.0000000   0.0000000   0.0000000   0.0000000   0.0000000   0.0000000   0.0000000   0.0000000   0.0000000
 NQMom=    0.0000000   0.0000000   0.0000000   0.0000000   0.0000000   0.0000000   0.0000000   0.0000000   0.0000000   0.0000000
 NMagM=    2.7928460   2.7928460   2.7928460   2.7928460   2.7928460   2.7928460   2.7928460   2.7928460   2.7928460   0.0000000

  Atom        91          92          93          94          95          96          97          98          99         100
 IAtWgt=          12          16          12          16          16          12          12           1           1           1
 AtmWgt=  12.0000000  15.9949146  12.0000000  15.9949146  15.9949146  12.0000000  12.0000000   1.0078250   1.0078250   1.0078250
 NucSpn=           0           0           0           0           0           0           0           1           1           1
 AtZEff=   0.0000000   0.0000000   0.0000000   0.0000000   0.0000000   0.0000000   0.0000000   0.0000000   0.0000000   0.0000000
 NQMom=    0.0000000   0.0000000   0.0000000   0.0000000   0.0000000   0.0000000   0.0000000   0.0000000   0.0000000   0.0000000
 NMagM=    0.0000000   0.0000000   0.0000000   0.0000000   0.0000000   0.0000000   0.0000000   2.7928460   2.7928460   2.7928460

  Atom       101         102         103         104         105         106         107         108         109         110
 IAtWgt=           1           1           1           1           1           1           1           1           1           1
 AtmWgt=   1.0078250   1.0078250   1.0078250   1.0078250   1.0078250   1.0078250   1.0078250   1.0078250   1.0078250   1.0078250
 NucSpn=           1           1           1           1           1           1           1           1           1           1
 AtZEff=   0.0000000   0.0000000   0.0000000   0.0000000   0.0000000   0.0000000   0.0000000   0.0000000   0.0000000   0.0000000
 NQMom=    0.0000000   0.0000000   0.0000000   0.0000000   0.0000000   0.0000000   0.0000000   0.0000000   0.0000000   0.0000000
 NMagM=    2.7928460   2.7928460   2.7928460   2.7928460   2.7928460   2.7928460   2.7928460   2.7928460   2.7928460   2.7928460

  Atom       111         112         113         114         115         116         117         118         119         120
 IAtWgt=           1           1           1           1           1           1           1           1           1           1
 AtmWgt=   1.0078250   1.0078250   1.0078250   1.0078250   1.0078250   1.0078250   1.0078250   1.0078250   1.0078250   1.0078250
 NucSpn=           1           1           1           1           1           1           1           1           1           1
 AtZEff=   0.0000000   0.0000000   0.0000000   0.0000000   0.0000000   0.0000000   0.0000000   0.0000000   0.0000000   0.0000000
 NQMom=    0.0000000   0.0000000   0.0000000   0.0000000   0.0000000   0.0000000   0.0000000   0.0000000   0.0000000   0.0000000
 NMagM=    2.7928460   2.7928460   2.7928460   2.7928460   2.7928460   2.7928460   2.7928460   2.7928460   2.7928460   2.7928460

  Atom       121         122         123         124         125         126         127         128         129         130
 IAtWgt=           1           1           1           1           1          16           1           1           1           1
 AtmWgt=   1.0078250   1.0078250   1.0078250   1.0078250   1.0078250  15.9949146   1.0078250   1.0078250   1.0078250   1.0078250
 NucSpn=           1           1           1           1           1           0           1           1           1           1
 AtZEff=   0.0000000   0.0000000   0.0000000   0.0000000   0.0000000   0.0000000   0.0000000   0.0000000   0.0000000   0.0000000
 NQMom=    0.0000000   0.0000000   0.0000000   0.0000000   0.0000000   0.0000000   0.0000000   0.0000000   0.0000000   0.0000000
 NMagM=    2.7928460   2.7928460   2.7928460   2.7928460   2.7928460   0.0000000   2.7928460   2.7928460   2.7928460   2.7928460

  Atom       131         132         133         134         135         136         137         138         139         140
 IAtWgt=           1          16           1          16           1           1           1           1           1          16
 AtmWgt=   1.0078250  15.9949146   1.0078250  15.9949146   1.0078250   1.0078250   1.0078250   1.0078250   1.0078250  15.9949146
 NucSpn=           1           0           1           0           1           1           1           1           1           0
 AtZEff=   0.0000000   0.0000000   0.0000000   0.0000000   0.0000000   0.0000000   0.0000000   0.0000000   0.0000000   0.0000000
 NQMom=    0.0000000   0.0000000   0.0000000   0.0000000   0.0000000   0.0000000   0.0000000   0.0000000   0.0000000   0.0000000
 NMagM=    2.7928460   0.0000000   2.7928460   0.0000000   2.7928460   2.7928460   2.7928460   2.7928460   2.7928460   0.0000000

  Atom       141         142         143         144         145         146         147         148         149         150
 IAtWgt=          16          12          16          12          16          12          16          12           1           1
 AtmWgt=  15.9949146  12.0000000  15.9949146  12.0000000  15.9949146  12.0000000  15.9949146  12.0000000   1.0078250   1.0078250
 NucSpn=           0           0           0           0           0           0           0           0           1           1
 AtZEff=   0.0000000   0.0000000   0.0000000   0.0000000   0.0000000   0.0000000   0.0000000   0.0000000   0.0000000   0.0000000
 NQMom=    0.0000000   0.0000000   0.0000000   0.0000000   0.0000000   0.0000000   0.0000000   0.0000000   0.0000000   0.0000000
 NMagM=    0.0000000   0.0000000   0.0000000   0.0000000   0.0000000   0.0000000   0.0000000   0.0000000   2.7928460   2.7928460

  Atom       151         152         153         154         155         156         157         158         159         160
 IAtWgt=           1           1           1           1           1           1           1           1           1           1
 AtmWgt=   1.0078250   1.0078250   1.0078250   1.0078250   1.0078250   1.0078250   1.0078250   1.0078250   1.0078250   1.0078250
 NucSpn=           1           1           1           1           1           1           1           1           1           1
 AtZEff=   0.0000000   0.0000000   0.0000000   0.0000000   0.0000000   0.0000000   0.0000000   0.0000000   0.0000000   0.0000000
 NQMom=    0.0000000   0.0000000   0.0000000   0.0000000   0.0000000   0.0000000   0.0000000   0.0000000   0.0000000   0.0000000
 NMagM=    2.7928460   2.7928460   2.7928460   2.7928460   2.7928460   2.7928460   2.7928460   2.7928460   2.7928460   2.7928460

  Atom       161         162         163         164         165         166         167         168         169         170
 IAtWgt=          12          12           1          12          12           1           1           1           1           1
 AtmWgt=  12.0000000  12.0000000   1.0078250  12.0000000  12.0000000   1.0078250   1.0078250   1.0078250   1.0078250   1.0078250
 NucSpn=           0           0           1           0           0           1           1           1           1           1
 AtZEff=   0.0000000   0.0000000   0.0000000   0.0000000   0.0000000   0.0000000   0.0000000   0.0000000   0.0000000   0.0000000
 NQMom=    0.0000000   0.0000000   0.0000000   0.0000000   0.0000000   0.0000000   0.0000000   0.0000000   0.0000000   0.0000000
 NMagM=    0.0000000   0.0000000   2.7928460   0.0000000   0.0000000   2.7928460   2.7928460   2.7928460   2.7928460   2.7928460

  Atom       171         172         173         174         175         176         177
 IAtWgt=           1           1           1           1           1           1           1
 AtmWgt=   1.0078250   1.0078250   1.0078250   1.0078250   1.0078250   1.0078250   1.0078250
 NucSpn=           1           1           1           1           1           1           1
 AtZEff=   0.0000000   0.0000000   0.0000000   0.0000000   0.0000000   0.0000000   0.0000000
 NQMom=    0.0000000   0.0000000   0.0000000   0.0000000   0.0000000   0.0000000   0.0000000
 NMagM=    2.7928460   2.7928460   2.7928460   2.7928460   2.7928460   2.7928460   2.7928460
 Leave Link  101 at Wed Aug  6 12:00:08 2014, MaxMem= 2147483648 cpu:       4.8
 (Enter /opt/g09/l103.exe)

 GradGradGradGradGradGradGradGradGradGradGradGradGradGradGradGradGradGrad
 Berny optimization.
 Initialization pass.
                           ----------------------------
                           !    Initial Parameters    !
                           ! (Angstroms and Degrees)  !
 --------------------------                            --------------------------
 ! Name  Definition              Value          Derivative Info.                !
 --------------------------------------------------------------------------------
 ! R1    R(1,2)                  1.5299         estimate D2E/DX2                !
 ! R2    R(1,5)                  1.5308         estimate D2E/DX2                !
 ! R3    R(1,6)                  1.5316         estimate D2E/DX2                !
 ! R4    R(1,9)                  1.5305         estimate D2E/DX2                !
 ! R5    R(2,3)                  1.4117         estimate D2E/DX2                !
 ! R6    R(2,18)                 1.3844         estimate D2E/DX2                !
 ! R7    R(3,4)                  1.4591         estimate D2E/DX2                !
 ! R8    R(3,21)                 1.399          estimate D2E/DX2                !
 ! R9    R(4,5)                  1.4108         estimate D2E/DX2                !
 ! R10   R(4,14)                 1.3991         estimate D2E/DX2                !
 ! R11   R(5,17)                 1.3841         estimate D2E/DX2                !
 ! R12   R(6,7)                  1.4104         estimate D2E/DX2                !
 ! R13   R(6,10)                 1.3849         estimate D2E/DX2                !
 ! R14   R(7,8)                  1.4583         estimate D2E/DX2                !
 ! R15   R(7,13)                 1.3988         estimate D2E/DX2                !
 ! R16   R(8,9)                  1.4112         estimate D2E/DX2                !
 ! R17   R(8,22)                 1.3993         estimate D2E/DX2                !
 ! R18   R(9,25)                 1.3858         estimate D2E/DX2                !
 ! R19   R(10,11)                1.4106         estimate D2E/DX2                !
 ! R20   R(10,89)                1.0894         estimate D2E/DX2                !
 ! R21   R(11,12)                1.4113         estimate D2E/DX2                !
 ! R22   R(11,26)                1.4139         estimate D2E/DX2                !
 ! R23   R(12,13)                1.3923         estimate D2E/DX2                !
 ! R24   R(12,87)                1.0892         estimate D2E/DX2                !
 ! R25   R(13,86)                1.0908         estimate D2E/DX2                !
 ! R26   R(14,15)                1.3937         estimate D2E/DX2                !
 ! R27   R(14,82)                1.091          estimate D2E/DX2                !
 ! R28   R(15,16)                1.4097         estimate D2E/DX2                !
 ! R29   R(15,83)                1.089          estimate D2E/DX2                !
 ! R30   R(16,17)                1.4102         estimate D2E/DX2                !
 ! R31   R(16,27)                1.4161         estimate D2E/DX2                !
 ! R32   R(17,88)                1.0901         estimate D2E/DX2                !
 ! R33   R(18,19)                1.4105         estimate D2E/DX2                !
 ! R34   R(18,79)                1.09           estimate D2E/DX2                !
 ! R35   R(19,20)                1.4104         estimate D2E/DX2                !
 ! R36   R(19,28)                1.4131         estimate D2E/DX2                !
 ! R37   R(20,21)                1.3927         estimate D2E/DX2                !
 ! R38   R(20,80)                1.0891         estimate D2E/DX2                !
 ! R39   R(21,81)                1.0909         estimate D2E/DX2                !
 ! R40   R(22,23)                1.3918         estimate D2E/DX2                !
 ! R41   R(22,84)                1.0909         estimate D2E/DX2                !
 ! R42   R(23,24)                1.4105         estimate D2E/DX2                !
 ! R43   R(23,85)                1.0893         estimate D2E/DX2                !
 ! R44   R(24,25)                1.4102         estimate D2E/DX2                !
 ! R45   R(24,29)                1.4137         estimate D2E/DX2                !
 ! R46   R(25,78)                1.0898         estimate D2E/DX2                !
 ! R47   R(26,34)                1.4206         estimate D2E/DX2                !
 ! R48   R(26,35)                1.423          estimate D2E/DX2                !
 ! R49   R(27,36)                1.4183         estimate D2E/DX2                !
 ! R50   R(27,37)                1.4237         estimate D2E/DX2                !
 ! R51   R(28,31)                1.4219         estimate D2E/DX2                !
 ! R52   R(28,33)                1.4165         estimate D2E/DX2                !
 ! R53   R(29,30)                1.4218         estimate D2E/DX2                !
 ! R54   R(29,32)                1.4163         estimate D2E/DX2                !
 ! R55   R(30,73)                1.394          estimate D2E/DX2                !
 ! R56   R(30,77)                1.4213         estimate D2E/DX2                !
 ! R57   R(31,58)                1.3939         estimate D2E/DX2                !
 ! R58   R(31,62)                1.4209         estimate D2E/DX2                !
 ! R59   R(32,68)                1.4084         estimate D2E/DX2                !
 ! R60   R(32,72)                1.3998         estimate D2E/DX2                !
 ! R61   R(33,63)                1.4014         estimate D2E/DX2                !
 ! R62   R(33,67)                1.406          estimate D2E/DX2                !
 ! R63   R(34,43)                1.3992         estimate D2E/DX2                !
 ! R64   R(34,47)                1.408          estimate D2E/DX2                !
 ! R65   R(35,48)                1.411          estimate D2E/DX2                !
 ! R66   R(35,52)                1.4063         estimate D2E/DX2                !
 ! R67   R(36,38)                1.3999         estimate D2E/DX2                !
 ! R68   R(36,42)                1.4088         estimate D2E/DX2                !
 ! R69   R(37,53)                1.4105         estimate D2E/DX2                !
 ! R70   R(37,57)                1.4064         estimate D2E/DX2                !
 ! R71   R(38,39)                1.3972         estimate D2E/DX2                !
 ! R72   R(38,102)               1.0893         estimate D2E/DX2                !
 ! R73   R(39,40)                1.3987         estimate D2E/DX2                !
 ! R74   R(39,101)               1.088          estimate D2E/DX2                !
 ! R75   R(40,41)                1.4031         estimate D2E/DX2                !
 ! R76   R(40,94)                1.3714         estimate D2E/DX2                !
 ! R77   R(41,42)                1.3871         estimate D2E/DX2                !
 ! R78   R(41,98)                1.0897         estimate D2E/DX2                !
 ! R79   R(42,99)                1.0896         estimate D2E/DX2                !
 ! R80   R(43,44)                1.397          estimate D2E/DX2                !
 ! R81   R(43,100)               1.0893         estimate D2E/DX2                !
 ! R82   R(44,45)                1.3987         estimate D2E/DX2                !
 ! R83   R(44,163)               1.0879         estimate D2E/DX2                !
 ! R84   R(45,46)                1.4032         estimate D2E/DX2                !
 ! R85   R(45,95)                1.3709         estimate D2E/DX2                !
 ! R86   R(46,47)                1.387          estimate D2E/DX2                !
 ! R87   R(46,103)               1.0901         estimate D2E/DX2                !
 ! R88   R(47,104)               1.0896         estimate D2E/DX2                !
 ! R89   R(48,49)                1.4021         estimate D2E/DX2                !
 ! R90   R(48,140)               1.3747         estimate D2E/DX2                !
 ! R91   R(49,50)                1.3971         estimate D2E/DX2                !
 ! R92   R(49,139)               1.0876         estimate D2E/DX2                !
 ! R93   R(50,51)                1.4038         estimate D2E/DX2                !
 ! R94   R(50,143)               1.3683         estimate D2E/DX2                !
 ! R95   R(51,52)                1.3862         estimate D2E/DX2                !
 ! R96   R(51,138)               1.0891         estimate D2E/DX2                !
 ! R97   R(52,137)               1.0901         estimate D2E/DX2                !
 ! R98   R(53,54)                1.4025         estimate D2E/DX2                !
 ! R99   R(53,134)               1.3742         estimate D2E/DX2                !
 ! R100  R(54,55)                1.3968         estimate D2E/DX2                !
 ! R101  R(54,133)               1.0875         estimate D2E/DX2                !
 ! R102  R(55,56)                1.4037         estimate D2E/DX2                !
 ! R103  R(55,145)               1.3681         estimate D2E/DX2                !
 ! R104  R(56,57)                1.3857         estimate D2E/DX2                !
 ! R105  R(56,135)               1.0891         estimate D2E/DX2                !
 ! R106  R(57,136)               1.0902         estimate D2E/DX2                !
 ! R107  R(58,59)                1.3975         estimate D2E/DX2                !
 ! R108  R(58,128)               1.0903         estimate D2E/DX2                !
 ! R109  R(59,60)                1.3976         estimate D2E/DX2                !
 ! R110  R(59,127)               1.0871         estimate D2E/DX2                !
 ! R111  R(60,61)                1.4038         estimate D2E/DX2                !
 ! R112  R(60,141)               1.3689         estimate D2E/DX2                !
 ! R113  R(61,62)                1.3944         estimate D2E/DX2                !
 ! R114  R(61,125)               1.0874         estimate D2E/DX2                !
 ! R115  R(62,126)               1.3612         estimate D2E/DX2                !
 ! R116  R(63,64)                1.3955         estimate D2E/DX2                !
 ! R117  R(63,110)               1.0893         estimate D2E/DX2                !
 ! R118  R(64,65)                1.4009         estimate D2E/DX2                !
 ! R119  R(64,109)               1.0882         estimate D2E/DX2                !
 ! R120  R(65,66)                1.4011         estimate D2E/DX2                !
 ! R121  R(65,92)                1.3727         estimate D2E/DX2                !
 ! R122  R(66,67)                1.3891         estimate D2E/DX2                !
 ! R123  R(66,111)               1.0898         estimate D2E/DX2                !
 ! R124  R(67,112)               1.0898         estimate D2E/DX2                !
 ! R125  R(68,69)                1.3867         estimate D2E/DX2                !
 ! R126  R(68,108)               1.0894         estimate D2E/DX2                !
 ! R127  R(69,70)                1.4038         estimate D2E/DX2                !
 ! R128  R(69,107)               1.0902         estimate D2E/DX2                !
 ! R129  R(70,71)                1.3981         estimate D2E/DX2                !
 ! R130  R(70,90)                1.3718         estimate D2E/DX2                !
 ! R131  R(71,72)                1.3981         estimate D2E/DX2                !
 ! R132  R(71,106)               1.0882         estimate D2E/DX2                !
 ! R133  R(72,105)               1.0897         estimate D2E/DX2                !
 ! R134  R(73,74)                1.3978         estimate D2E/DX2                !
 ! R135  R(73,129)               1.0901         estimate D2E/DX2                !
 ! R136  R(74,75)                1.3975         estimate D2E/DX2                !
 ! R137  R(74,130)               1.0871         estimate D2E/DX2                !
 ! R138  R(75,76)                1.4041         estimate D2E/DX2                !
 ! R139  R(75,147)               1.3692         estimate D2E/DX2                !
 ! R140  R(76,77)                1.3939         estimate D2E/DX2                !
 ! R141  R(76,131)               1.0873         estimate D2E/DX2                !
 ! R142  R(77,132)               1.3616         estimate D2E/DX2                !
 ! R143  R(90,91)                1.4213         estimate D2E/DX2                !
 ! R144  R(91,122)               1.1026         estimate D2E/DX2                !
 ! R145  R(91,123)               1.1023         estimate D2E/DX2                !
 ! R146  R(91,124)               1.0949         estimate D2E/DX2                !
 ! R147  R(92,93)                1.4211         estimate D2E/DX2                !
 ! R148  R(93,113)               1.1023         estimate D2E/DX2                !
 ! R149  R(93,114)               1.1022         estimate D2E/DX2                !
 ! R150  R(93,115)               1.0951         estimate D2E/DX2                !
 ! R151  R(94,97)                1.4216         estimate D2E/DX2                !
 ! R152  R(95,96)                1.4219         estimate D2E/DX2                !
 ! R153  R(96,116)               1.1022         estimate D2E/DX2                !
 ! R154  R(96,117)               1.1023         estimate D2E/DX2                !
 ! R155  R(96,118)               1.0949         estimate D2E/DX2                !
 ! R156  R(97,119)               1.0949         estimate D2E/DX2                !
 ! R157  R(97,120)               1.1023         estimate D2E/DX2                !
 ! R158  R(97,121)               1.1024         estimate D2E/DX2                !
 ! R159  R(126,165)              1.4233         estimate D2E/DX2                !
 ! R160  R(132,161)              1.4231         estimate D2E/DX2                !
 ! R161  R(134,162)              1.435          estimate D2E/DX2                !
 ! R162  R(140,164)              1.4348         estimate D2E/DX2                !
 ! R163  R(141,142)              1.424          estimate D2E/DX2                !
 ! R164  R(142,149)              1.0948         estimate D2E/DX2                !
 ! R165  R(142,150)              1.1015         estimate D2E/DX2                !
 ! R166  R(142,151)              1.1018         estimate D2E/DX2                !
 ! R167  R(143,144)              1.423          estimate D2E/DX2                !
 ! R168  R(144,158)              1.0946         estimate D2E/DX2                !
 ! R169  R(144,159)              1.1017         estimate D2E/DX2                !
 ! R170  R(144,160)              1.1017         estimate D2E/DX2                !
 ! R171  R(145,146)              1.4231         estimate D2E/DX2                !
 ! R172  R(146,155)              1.0948         estimate D2E/DX2                !
 ! R173  R(146,156)              1.1019         estimate D2E/DX2                !
 ! R174  R(146,157)              1.1018         estimate D2E/DX2                !
 ! R175  R(147,148)              1.4235         estimate D2E/DX2                !
 ! R176  R(148,152)              1.0948         estimate D2E/DX2                !
 ! R177  R(148,153)              1.1017         estimate D2E/DX2                !
 ! R178  R(148,154)              1.1016         estimate D2E/DX2                !
 ! R179  R(161,169)              1.0946         estimate D2E/DX2                !
 ! R180  R(161,170)              1.1018         estimate D2E/DX2                !
 ! R181  R(161,171)              1.1013         estimate D2E/DX2                !
 ! R182  R(162,172)              1.0956         estimate D2E/DX2                !
 ! R183  R(162,173)              1.0978         estimate D2E/DX2                !
 ! R184  R(162,174)              1.1014         estimate D2E/DX2                !
 ! R185  R(164,175)              1.1017         estimate D2E/DX2                !
 ! R186  R(164,176)              1.095          estimate D2E/DX2                !
 ! R187  R(164,177)              1.0979         estimate D2E/DX2                !
 ! R188  R(165,166)              1.0945         estimate D2E/DX2                !
 ! R189  R(165,167)              1.1017         estimate D2E/DX2                !
 ! R190  R(165,168)              1.1014         estimate D2E/DX2                !
 ! A1    A(2,1,5)              101.3712         estimate D2E/DX2                !
 ! A2    A(2,1,6)              113.865          estimate D2E/DX2                !
 ! A3    A(2,1,9)              114.3738         estimate D2E/DX2                !
 ! A4    A(5,1,6)              112.6466         estimate D2E/DX2                !
 ! A5    A(5,1,9)              113.7134         estimate D2E/DX2                !
 ! A6    A(6,1,9)              101.4222         estimate D2E/DX2                !
 ! A7    A(1,2,3)              110.4886         estimate D2E/DX2                !
 ! A8    A(1,2,18)             127.9921         estimate D2E/DX2                !
 ! A9    A(3,2,18)             121.5106         estimate D2E/DX2                !
 ! A10   A(2,3,4)              108.8247         estimate D2E/DX2                !
 ! A11   A(2,3,21)             119.1704         estimate D2E/DX2                !
 ! A12   A(4,3,21)             132.0049         estimate D2E/DX2                !
 ! A13   A(3,4,5)              108.7412         estimate D2E/DX2                !
 ! A14   A(3,4,14)             132.1878         estimate D2E/DX2                !
 ! A15   A(5,4,14)             119.071          estimate D2E/DX2                !
 ! A16   A(1,5,4)              110.5607         estimate D2E/DX2                !
 ! A17   A(1,5,17)             127.8796         estimate D2E/DX2                !
 ! A18   A(4,5,17)             121.5597         estimate D2E/DX2                !
 ! A19   A(1,6,7)              110.4493         estimate D2E/DX2                !
 ! A20   A(1,6,10)             127.8508         estimate D2E/DX2                !
 ! A21   A(7,6,10)             121.6993         estimate D2E/DX2                !
 ! A22   A(6,7,8)              108.8292         estimate D2E/DX2                !
 ! A23   A(6,7,13)             119.1095         estimate D2E/DX2                !
 ! A24   A(8,7,13)             132.0612         estimate D2E/DX2                !
 ! A25   A(7,8,9)              108.872          estimate D2E/DX2                !
 ! A26   A(7,8,22)             131.9147         estimate D2E/DX2                !
 ! A27   A(9,8,22)             119.2111         estimate D2E/DX2                !
 ! A28   A(1,9,8)              110.4207         estimate D2E/DX2                !
 ! A29   A(1,9,25)             128.0024         estimate D2E/DX2                !
 ! A30   A(8,9,25)             121.5614         estimate D2E/DX2                !
 ! A31   A(6,10,11)            119.2678         estimate D2E/DX2                !
 ! A32   A(6,10,89)            120.6592         estimate D2E/DX2                !
 ! A33   A(11,10,89)           120.0731         estimate D2E/DX2                !
 ! A34   A(10,11,12)           119.0377         estimate D2E/DX2                !
 ! A35   A(10,11,26)           121.2158         estimate D2E/DX2                !
 ! A36   A(12,11,26)           119.7465         estimate D2E/DX2                !
 ! A37   A(11,12,13)           121.2695         estimate D2E/DX2                !
 ! A38   A(11,12,87)           118.9387         estimate D2E/DX2                !
 ! A39   A(13,12,87)           119.7914         estimate D2E/DX2                !
 ! A40   A(7,13,12)            119.6051         estimate D2E/DX2                !
 ! A41   A(7,13,86)            120.8613         estimate D2E/DX2                !
 ! A42   A(12,13,86)           119.5278         estimate D2E/DX2                !
 ! A43   A(4,14,15)            119.7603         estimate D2E/DX2                !
 ! A44   A(4,14,82)            120.7976         estimate D2E/DX2                !
 ! A45   A(15,14,82)           119.4352         estimate D2E/DX2                !
 ! A46   A(14,15,16)           121.0585         estimate D2E/DX2                !
 ! A47   A(14,15,83)           119.7829         estimate D2E/DX2                !
 ! A48   A(16,15,83)           119.1572         estimate D2E/DX2                !
 ! A49   A(15,16,17)           119.1224         estimate D2E/DX2                !
 ! A50   A(15,16,27)           121.4148         estimate D2E/DX2                !
 ! A51   A(17,16,27)           119.4574         estimate D2E/DX2                !
 ! A52   A(5,17,16)            119.4258         estimate D2E/DX2                !
 ! A53   A(5,17,88)            120.777          estimate D2E/DX2                !
 ! A54   A(16,17,88)           119.7965         estimate D2E/DX2                !
 ! A55   A(2,18,19)            119.3774         estimate D2E/DX2                !
 ! A56   A(2,18,79)            120.9744         estimate D2E/DX2                !
 ! A57   A(19,18,79)           119.6479         estimate D2E/DX2                !
 ! A58   A(18,19,20)           119.144          estimate D2E/DX2                !
 ! A59   A(18,19,28)           119.8047         estimate D2E/DX2                !
 ! A60   A(20,19,28)           121.0446         estimate D2E/DX2                !
 ! A61   A(19,20,21)           121.1209         estimate D2E/DX2                !
 ! A62   A(19,20,80)           118.9974         estimate D2E/DX2                !
 ! A63   A(21,20,80)           119.8793         estimate D2E/DX2                !
 ! A64   A(3,21,20)            119.6756         estimate D2E/DX2                !
 ! A65   A(3,21,81)            120.8327         estimate D2E/DX2                !
 ! A66   A(20,21,81)           119.4837         estimate D2E/DX2                !
 ! A67   A(8,22,23)            119.5756         estimate D2E/DX2                !
 ! A68   A(8,22,84)            120.8465         estimate D2E/DX2                !
 ! A69   A(23,22,84)           119.5734         estimate D2E/DX2                !
 ! A70   A(22,23,24)           121.2265         estimate D2E/DX2                !
 ! A71   A(22,23,85)           119.9656         estimate D2E/DX2                !
 ! A72   A(24,23,85)           118.8078         estimate D2E/DX2                !
 ! A73   A(23,24,25)           119.1682         estimate D2E/DX2                !
 ! A74   A(23,24,29)           119.6181         estimate D2E/DX2                !
 ! A75   A(25,24,29)           121.2091         estimate D2E/DX2                !
 ! A76   A(9,25,24)            119.2548         estimate D2E/DX2                !
 ! A77   A(9,25,78)            120.7796         estimate D2E/DX2                !
 ! A78   A(24,25,78)           119.9635         estimate D2E/DX2                !
 ! A79   A(11,26,34)           121.549          estimate D2E/DX2                !
 ! A80   A(11,26,35)           119.2356         estimate D2E/DX2                !
 ! A81   A(34,26,35)           118.6217         estimate D2E/DX2                !
 ! A82   A(16,27,36)           121.5885         estimate D2E/DX2                !
 ! A83   A(16,27,37)           118.5756         estimate D2E/DX2                !
 ! A84   A(36,27,37)           118.9393         estimate D2E/DX2                !
 ! A85   A(19,28,31)           118.7594         estimate D2E/DX2                !
 ! A86   A(19,28,33)           121.4821         estimate D2E/DX2                !
 ! A87   A(31,28,33)           119.312          estimate D2E/DX2                !
 ! A88   A(24,29,30)           118.8248         estimate D2E/DX2                !
 ! A89   A(24,29,32)           121.7734         estimate D2E/DX2                !
 ! A90   A(30,29,32)           119.0318         estimate D2E/DX2                !
 ! A91   A(29,30,73)           120.983          estimate D2E/DX2                !
 ! A92   A(29,30,77)           120.9506         estimate D2E/DX2                !
 ! A93   A(73,30,77)           118.0615         estimate D2E/DX2                !
 ! A94   A(28,31,58)           120.8334         estimate D2E/DX2                !
 ! A95   A(28,31,62)           121.0412         estimate D2E/DX2                !
 ! A96   A(58,31,62)           118.117          estimate D2E/DX2                !
 ! A97   A(29,32,68)           120.9985         estimate D2E/DX2                !
 ! A98   A(29,32,72)           120.8377         estimate D2E/DX2                !
 ! A99   A(68,32,72)           118.1356         estimate D2E/DX2                !
 ! A100  A(28,33,63)           121.0579         estimate D2E/DX2                !
 ! A101  A(28,33,67)           120.7599         estimate D2E/DX2                !
 ! A102  A(63,33,67)           118.1688         estimate D2E/DX2                !
 ! A103  A(26,34,43)           120.9409         estimate D2E/DX2                !
 ! A104  A(26,34,47)           120.8613         estimate D2E/DX2                !
 ! A105  A(43,34,47)           118.1764         estimate D2E/DX2                !
 ! A106  A(26,35,48)           122.0118         estimate D2E/DX2                !
 ! A107  A(26,35,52)           120.1886         estimate D2E/DX2                !
 ! A108  A(48,35,52)           117.7668         estimate D2E/DX2                !
 ! A109  A(27,36,38)           121.1171         estimate D2E/DX2                !
 ! A110  A(27,36,42)           120.7667         estimate D2E/DX2                !
 ! A111  A(38,36,42)           118.0933         estimate D2E/DX2                !
 ! A112  A(27,37,53)           122.2845         estimate D2E/DX2                !
 ! A113  A(27,37,57)           119.933          estimate D2E/DX2                !
 ! A114  A(53,37,57)           117.7573         estimate D2E/DX2                !
 ! A115  A(36,38,39)           121.2557         estimate D2E/DX2                !
 ! A116  A(36,38,102)          119.4681         estimate D2E/DX2                !
 ! A117  A(39,38,102)          119.275          estimate D2E/DX2                !
 ! A118  A(38,39,40)           120.0578         estimate D2E/DX2                !
 ! A119  A(38,39,101)          118.8583         estimate D2E/DX2                !
 ! A120  A(40,39,101)          121.0822         estimate D2E/DX2                !
 ! A121  A(39,40,41)           119.1139         estimate D2E/DX2                !
 ! A122  A(39,40,94)           124.8742         estimate D2E/DX2                !
 ! A123  A(41,40,94)           116.0115         estimate D2E/DX2                !
 ! A124  A(40,41,42)           120.5448         estimate D2E/DX2                !
 ! A125  A(40,41,98)           118.8095         estimate D2E/DX2                !
 ! A126  A(42,41,98)           120.64           estimate D2E/DX2                !
 ! A127  A(36,42,41)           120.9244         estimate D2E/DX2                !
 ! A128  A(36,42,99)           119.5861         estimate D2E/DX2                !
 ! A129  A(41,42,99)           119.4877         estimate D2E/DX2                !
 ! A130  A(34,43,44)           121.2492         estimate D2E/DX2                !
 ! A131  A(34,43,100)          119.4524         estimate D2E/DX2                !
 ! A132  A(44,43,100)          119.2956         estimate D2E/DX2                !
 ! A133  A(43,44,45)           120.016          estimate D2E/DX2                !
 ! A134  A(43,44,163)          118.9216         estimate D2E/DX2                !
 ! A135  A(45,44,163)          121.0606         estimate D2E/DX2                !
 ! A136  A(44,45,46)           119.1328         estimate D2E/DX2                !
 ! A137  A(44,45,95)           124.8924         estimate D2E/DX2                !
 ! A138  A(46,45,95)           115.9745         estimate D2E/DX2                !
 ! A139  A(45,46,47)           120.5452         estimate D2E/DX2                !
 ! A140  A(45,46,103)          118.623          estimate D2E/DX2                !
 ! A141  A(47,46,103)          120.8281         estimate D2E/DX2                !
 ! A142  A(34,47,46)           120.8693         estimate D2E/DX2                !
 ! A143  A(34,47,104)          119.5858         estimate D2E/DX2                !
 ! A144  A(46,47,104)          119.5427         estimate D2E/DX2                !
 ! A145  A(35,48,49)           120.4177         estimate D2E/DX2                !
 ! A146  A(35,48,140)          123.2376         estimate D2E/DX2                !
 ! A147  A(49,48,140)          116.2255         estimate D2E/DX2                !
 ! A148  A(48,49,50)           120.5365         estimate D2E/DX2                !
 ! A149  A(48,49,139)          117.1898         estimate D2E/DX2                !
 ! A150  A(50,49,139)          122.2652         estimate D2E/DX2                !
 ! A151  A(49,50,51)           119.5377         estimate D2E/DX2                !
 ! A152  A(49,50,143)          124.3444         estimate D2E/DX2                !
 ! A153  A(51,50,143)          116.1158         estimate D2E/DX2                !
 ! A154  A(50,51,52)           119.572          estimate D2E/DX2                !
 ! A155  A(50,51,138)          119.1819         estimate D2E/DX2                !
 ! A156  A(52,51,138)          121.2314         estimate D2E/DX2                !
 ! A157  A(35,52,51)           122.1142         estimate D2E/DX2                !
 ! A158  A(35,52,137)          118.1402         estimate D2E/DX2                !
 ! A159  A(51,52,137)          119.7414         estimate D2E/DX2                !
 ! A160  A(37,53,54)           120.3322         estimate D2E/DX2                !
 ! A161  A(37,53,134)          123.7224         estimate D2E/DX2                !
 ! A162  A(54,53,134)          115.8546         estimate D2E/DX2                !
 ! A163  A(53,54,55)           120.6078         estimate D2E/DX2                !
 ! A164  A(53,54,133)          117.1387         estimate D2E/DX2                !
 ! A165  A(55,54,133)          122.2376         estimate D2E/DX2                !
 ! A166  A(54,55,56)           119.5667         estimate D2E/DX2                !
 ! A167  A(54,55,145)          124.3539         estimate D2E/DX2                !
 ! A168  A(56,55,145)          116.0765         estimate D2E/DX2                !
 ! A169  A(55,56,57)           119.4546         estimate D2E/DX2                !
 ! A170  A(55,56,135)          119.2395         estimate D2E/DX2                !
 ! A171  A(57,56,135)          121.2936         estimate D2E/DX2                !
 ! A172  A(37,57,56)           122.2345         estimate D2E/DX2                !
 ! A173  A(37,57,136)          117.8966         estimate D2E/DX2                !
 ! A174  A(56,57,136)          119.8656         estimate D2E/DX2                !
 ! A175  A(31,58,59)           122.4338         estimate D2E/DX2                !
 ! A176  A(31,58,128)          117.9615         estimate D2E/DX2                !
 ! A177  A(59,58,128)          119.6004         estimate D2E/DX2                !
 ! A178  A(58,59,60)           118.7149         estimate D2E/DX2                !
 ! A179  A(58,59,127)          119.6858         estimate D2E/DX2                !
 ! A180  A(60,59,127)          121.5964         estimate D2E/DX2                !
 ! A181  A(59,60,61)           120.2372         estimate D2E/DX2                !
 ! A182  A(59,60,141)          124.6546         estimate D2E/DX2                !
 ! A183  A(61,60,141)          115.1079         estimate D2E/DX2                !
 ! A184  A(60,61,62)           120.4378         estimate D2E/DX2                !
 ! A185  A(60,61,125)          117.9723         estimate D2E/DX2                !
 ! A186  A(62,61,125)          121.5705         estimate D2E/DX2                !
 ! A187  A(31,62,61)           120.0393         estimate D2E/DX2                !
 ! A188  A(31,62,126)          116.1139         estimate D2E/DX2                !
 ! A189  A(61,62,126)          123.8439         estimate D2E/DX2                !
 ! A190  A(33,63,64)           121.2044         estimate D2E/DX2                !
 ! A191  A(33,63,110)          119.4444         estimate D2E/DX2                !
 ! A192  A(64,63,110)          119.3509         estimate D2E/DX2                !
 ! A193  A(63,64,65)           120.0418         estimate D2E/DX2                !
 ! A194  A(63,64,109)          118.8884         estimate D2E/DX2                !
 ! A195  A(65,64,109)          121.0624         estimate D2E/DX2                !
 ! A196  A(64,65,66)           119.1414         estimate D2E/DX2                !
 ! A197  A(64,65,92)           124.7352         estimate D2E/DX2                !
 ! A198  A(66,65,92)           116.1232         estimate D2E/DX2                !
 ! A199  A(65,66,67)           120.5046         estimate D2E/DX2                !
 ! A200  A(65,66,111)          118.7609         estimate D2E/DX2                !
 ! A201  A(67,66,111)          120.7299         estimate D2E/DX2                !
 ! A202  A(33,67,66)           120.9268         estimate D2E/DX2                !
 ! A203  A(33,67,112)          119.4322         estimate D2E/DX2                !
 ! A204  A(66,67,112)          119.6411         estimate D2E/DX2                !
 ! A205  A(32,68,69)           120.7966         estimate D2E/DX2                !
 ! A206  A(32,68,108)          119.5571         estimate D2E/DX2                !
 ! A207  A(69,68,108)          119.6463         estimate D2E/DX2                !
 ! A208  A(68,69,70)           120.6926         estimate D2E/DX2                !
 ! A209  A(68,69,107)          120.8            estimate D2E/DX2                !
 ! A210  A(70,69,107)          118.5045         estimate D2E/DX2                !
 ! A211  A(69,70,71)           119.0685         estimate D2E/DX2                !
 ! A212  A(69,70,90)           115.9622         estimate D2E/DX2                !
 ! A213  A(71,70,90)           124.9692         estimate D2E/DX2                !
 ! A214  A(70,71,72)           119.9774         estimate D2E/DX2                !
 ! A215  A(70,71,106)          121.082          estimate D2E/DX2                !
 ! A216  A(72,71,106)          118.9366         estimate D2E/DX2                !
 ! A217  A(32,72,71)           121.319          estimate D2E/DX2                !
 ! A218  A(32,72,105)          119.4202         estimate D2E/DX2                !
 ! A219  A(71,72,105)          119.2596         estimate D2E/DX2                !
 ! A220  A(30,73,74)           122.4298         estimate D2E/DX2                !
 ! A221  A(30,73,129)          118.0092         estimate D2E/DX2                !
 ! A222  A(74,73,129)          119.5586         estimate D2E/DX2                !
 ! A223  A(73,74,75)           118.7588         estimate D2E/DX2                !
 ! A224  A(73,74,130)          119.6269         estimate D2E/DX2                !
 ! A225  A(75,74,130)          121.6084         estimate D2E/DX2                !
 ! A226  A(74,75,76)           120.1919         estimate D2E/DX2                !
 ! A227  A(74,75,147)          124.7311         estimate D2E/DX2                !
 ! A228  A(76,75,147)          115.0767         estimate D2E/DX2                !
 ! A229  A(75,76,77)           120.4412         estimate D2E/DX2                !
 ! A230  A(75,76,131)          117.9787         estimate D2E/DX2                !
 ! A231  A(77,76,131)          121.5664         estimate D2E/DX2                !
 ! A232  A(30,77,76)           120.096          estimate D2E/DX2                !
 ! A233  A(30,77,132)          116.1188         estimate D2E/DX2                !
 ! A234  A(76,77,132)          123.783          estimate D2E/DX2                !
 ! A235  A(70,90,91)           117.2717         estimate D2E/DX2                !
 ! A236  A(90,91,122)          111.5988         estimate D2E/DX2                !
 ! A237  A(90,91,123)          111.5471         estimate D2E/DX2                !
 ! A238  A(90,91,124)          105.9783         estimate D2E/DX2                !
 ! A239  A(122,91,123)         109.0573         estimate D2E/DX2                !
 ! A240  A(122,91,124)         109.3177         estimate D2E/DX2                !
 ! A241  A(123,91,124)         109.2667         estimate D2E/DX2                !
 ! A242  A(65,92,93)           117.2994         estimate D2E/DX2                !
 ! A243  A(92,93,113)          111.5718         estimate D2E/DX2                !
 ! A244  A(92,93,114)          111.666          estimate D2E/DX2                !
 ! A245  A(92,93,115)          105.9665         estimate D2E/DX2                !
 ! A246  A(113,93,114)         109.0356         estimate D2E/DX2                !
 ! A247  A(113,93,115)         109.2789         estimate D2E/DX2                !
 ! A248  A(114,93,115)         109.2443         estimate D2E/DX2                !
 ! A249  A(40,94,97)           117.3113         estimate D2E/DX2                !
 ! A250  A(45,95,96)           117.2979         estimate D2E/DX2                !
 ! A251  A(95,96,116)          111.5569         estimate D2E/DX2                !
 ! A252  A(95,96,117)          111.5371         estimate D2E/DX2                !
 ! A253  A(95,96,118)          105.973          estimate D2E/DX2                !
 ! A254  A(116,96,117)         109.1253         estimate D2E/DX2                !
 ! A255  A(116,96,118)         109.2843         estimate D2E/DX2                !
 ! A256  A(117,96,118)         109.2867         estimate D2E/DX2                !
 ! A257  A(94,97,119)          105.9433         estimate D2E/DX2                !
 ! A258  A(94,97,120)          111.5753         estimate D2E/DX2                !
 ! A259  A(94,97,121)          111.5811         estimate D2E/DX2                !
 ! A260  A(119,97,120)         109.2866         estimate D2E/DX2                !
 ! A261  A(119,97,121)         109.2969         estimate D2E/DX2                !
 ! A262  A(120,97,121)         109.0807         estimate D2E/DX2                !
 ! A263  A(62,126,165)         117.838          estimate D2E/DX2                !
 ! A264  A(77,132,161)         117.8551         estimate D2E/DX2                !
 ! A265  A(53,134,162)         116.6154         estimate D2E/DX2                !
 ! A266  A(48,140,164)         116.147          estimate D2E/DX2                !
 ! A267  A(60,141,142)         117.281          estimate D2E/DX2                !
 ! A268  A(141,142,149)        105.8194         estimate D2E/DX2                !
 ! A269  A(141,142,150)        111.4451         estimate D2E/DX2                !
 ! A270  A(141,142,151)        111.4477         estimate D2E/DX2                !
 ! A271  A(149,142,150)        109.4542         estimate D2E/DX2                !
 ! A272  A(149,142,151)        109.3828         estimate D2E/DX2                !
 ! A273  A(150,142,151)        109.2176         estimate D2E/DX2                !
 ! A274  A(50,143,144)         117.4817         estimate D2E/DX2                !
 ! A275  A(143,144,158)        105.8989         estimate D2E/DX2                !
 ! A276  A(143,144,159)        111.513          estimate D2E/DX2                !
 ! A277  A(143,144,160)        111.4868         estimate D2E/DX2                !
 ! A278  A(158,144,159)        109.3813         estimate D2E/DX2                !
 ! A279  A(158,144,160)        109.3356         estimate D2E/DX2                !
 ! A280  A(159,144,160)        109.1508         estimate D2E/DX2                !
 ! A281  A(55,145,146)         117.4996         estimate D2E/DX2                !
 ! A282  A(145,146,155)        105.906          estimate D2E/DX2                !
 ! A283  A(145,146,156)        111.5062         estimate D2E/DX2                !
 ! A284  A(145,146,157)        111.4721         estimate D2E/DX2                !
 ! A285  A(155,146,156)        109.3294         estimate D2E/DX2                !
 ! A286  A(155,146,157)        109.3721         estimate D2E/DX2                !
 ! A287  A(156,146,157)        109.1795         estimate D2E/DX2                !
 ! A288  A(75,147,148)         117.3448         estimate D2E/DX2                !
 ! A289  A(147,148,152)        105.8837         estimate D2E/DX2                !
 ! A290  A(147,148,153)        111.4556         estimate D2E/DX2                !
 ! A291  A(147,148,154)        111.5026         estimate D2E/DX2                !
 ! A292  A(152,148,153)        109.4039         estimate D2E/DX2                !
 ! A293  A(152,148,154)        109.3178         estimate D2E/DX2                !
 ! A294  A(153,148,154)        109.2011         estimate D2E/DX2                !
 ! A295  A(132,161,169)        105.7151         estimate D2E/DX2                !
 ! A296  A(132,161,170)        111.5077         estimate D2E/DX2                !
 ! A297  A(132,161,171)        111.4411         estimate D2E/DX2                !
 ! A298  A(169,161,170)        109.466          estimate D2E/DX2                !
 ! A299  A(169,161,171)        109.3719         estimate D2E/DX2                !
 ! A300  A(170,161,171)        109.26           estimate D2E/DX2                !
 ! A301  A(134,162,172)        105.6525         estimate D2E/DX2                !
 ! A302  A(134,162,173)        112.2492         estimate D2E/DX2                !
 ! A303  A(134,162,174)        110.5125         estimate D2E/DX2                !
 ! A304  A(172,162,173)        109.4005         estimate D2E/DX2                !
 ! A305  A(172,162,174)        109.4759         estimate D2E/DX2                !
 ! A306  A(173,162,174)        109.4609         estimate D2E/DX2                !
 ! A307  A(140,164,175)        110.3477         estimate D2E/DX2                !
 ! A308  A(140,164,176)        105.8838         estimate D2E/DX2                !
 ! A309  A(140,164,177)        112.1892         estimate D2E/DX2                !
 ! A310  A(175,164,176)        109.4408         estimate D2E/DX2                !
 ! A311  A(175,164,177)        109.4853         estimate D2E/DX2                !
 ! A312  A(176,164,177)        109.4108         estimate D2E/DX2                !
 ! A313  A(126,165,166)        105.7194         estimate D2E/DX2                !
 ! A314  A(126,165,167)        111.4798         estimate D2E/DX2                !
 ! A315  A(126,165,168)        111.3683         estimate D2E/DX2                !
 ! A316  A(166,165,167)        109.4796         estimate D2E/DX2                !
 ! A317  A(166,165,168)        109.3888         estimate D2E/DX2                !
 ! A318  A(167,165,168)        109.3253         estimate D2E/DX2                !
 ! D1    D(5,1,2,3)             -1.1412         estimate D2E/DX2                !
 ! D2    D(5,1,2,18)           179.9274         estimate D2E/DX2                !
 ! D3    D(6,1,2,3)            120.0871         estimate D2E/DX2                !
 ! D4    D(6,1,2,18)           -58.8443         estimate D2E/DX2                !
 ! D5    D(9,1,2,3)           -123.9249         estimate D2E/DX2                !
 ! D6    D(9,1,2,18)            57.1437         estimate D2E/DX2                !
 ! D7    D(2,1,5,4)              0.7175         estimate D2E/DX2                !
 ! D8    D(2,1,5,17)          -179.2188         estimate D2E/DX2                !
 ! D9    D(6,1,5,4)           -121.3602         estimate D2E/DX2                !
 ! D10   D(6,1,5,17)            58.7036         estimate D2E/DX2                !
 ! D11   D(9,1,5,4)            123.9548         estimate D2E/DX2                !
 ! D12   D(9,1,5,17)           -55.9814         estimate D2E/DX2                !
 ! D13   D(2,1,6,7)            123.8737         estimate D2E/DX2                !
 ! D14   D(2,1,6,10)           -56.3952         estimate D2E/DX2                !
 ! D15   D(5,1,6,7)           -121.406          estimate D2E/DX2                !
 ! D16   D(5,1,6,10)            58.3251         estimate D2E/DX2                !
 ! D17   D(9,1,6,7)              0.5222         estimate D2E/DX2                !
 ! D18   D(9,1,6,10)          -179.7467         estimate D2E/DX2                !
 ! D19   D(2,1,9,8)           -123.8082         estimate D2E/DX2                !
 ! D20   D(2,1,9,25)            57.6217         estimate D2E/DX2                !
 ! D21   D(5,1,9,8)            120.3793         estimate D2E/DX2                !
 ! D22   D(5,1,9,25)           -58.1907         estimate D2E/DX2                !
 ! D23   D(6,1,9,8)             -0.8052         estimate D2E/DX2                !
 ! D24   D(6,1,9,25)          -179.3752         estimate D2E/DX2                !
 ! D25   D(1,2,3,4)              1.1705         estimate D2E/DX2                !
 ! D26   D(1,2,3,21)          -178.7995         estimate D2E/DX2                !
 ! D27   D(18,2,3,4)          -179.8173         estimate D2E/DX2                !
 ! D28   D(18,2,3,21)            0.2127         estimate D2E/DX2                !
 ! D29   D(1,2,18,19)          178.8538         estimate D2E/DX2                !
 ! D30   D(1,2,18,79)           -0.9386         estimate D2E/DX2                !
 ! D31   D(3,2,18,19)            0.0279         estimate D2E/DX2                !
 ! D32   D(3,2,18,79)         -179.7645         estimate D2E/DX2                !
 ! D33   D(2,3,4,5)             -0.6817         estimate D2E/DX2                !
 ! D34   D(2,3,4,14)           179.4199         estimate D2E/DX2                !
 ! D35   D(21,3,4,5)           179.283          estimate D2E/DX2                !
 ! D36   D(21,3,4,14)           -0.6154         estimate D2E/DX2                !
 ! D37   D(2,3,21,20)           -0.3957         estimate D2E/DX2                !
 ! D38   D(2,3,21,81)         -179.3668         estimate D2E/DX2                !
 ! D39   D(4,3,21,20)          179.6425         estimate D2E/DX2                !
 ! D40   D(4,3,21,81)            0.6715         estimate D2E/DX2                !
 ! D41   D(3,4,5,1)             -0.0737         estimate D2E/DX2                !
 ! D42   D(3,4,5,17)           179.8673         estimate D2E/DX2                !
 ! D43   D(14,4,5,1)           179.8402         estimate D2E/DX2                !
 ! D44   D(14,4,5,17)           -0.2189         estimate D2E/DX2                !
 ! D45   D(3,4,14,15)          179.8003         estimate D2E/DX2                !
 ! D46   D(3,4,14,82)            0.766          estimate D2E/DX2                !
 ! D47   D(5,4,14,15)           -0.0896         estimate D2E/DX2                !
 ! D48   D(5,4,14,82)         -179.1239         estimate D2E/DX2                !
 ! D49   D(1,5,17,16)         -179.9358         estimate D2E/DX2                !
 ! D50   D(1,5,17,88)           -0.2414         estimate D2E/DX2                !
 ! D51   D(4,5,17,16)            0.1342         estimate D2E/DX2                !
 ! D52   D(4,5,17,88)          179.8286         estimate D2E/DX2                !
 ! D53   D(1,6,7,8)             -0.0779         estimate D2E/DX2                !
 ! D54   D(1,6,7,13)           179.8114         estimate D2E/DX2                !
 ! D55   D(10,6,7,8)          -179.8283         estimate D2E/DX2                !
 ! D56   D(10,6,7,13)            0.061          estimate D2E/DX2                !
 ! D57   D(1,6,10,11)         -178.8419         estimate D2E/DX2                !
 ! D58   D(1,6,10,89)            1.1673         estimate D2E/DX2                !
 ! D59   D(7,6,10,11)            0.862          estimate D2E/DX2                !
 ! D60   D(7,6,10,89)         -179.1289         estimate D2E/DX2                !
 ! D61   D(6,7,8,9)             -0.4559         estimate D2E/DX2                !
 ! D62   D(6,7,8,22)           178.9819         estimate D2E/DX2                !
 ! D63   D(13,7,8,9)           179.6744         estimate D2E/DX2                !
 ! D64   D(13,7,8,22)           -0.8878         estimate D2E/DX2                !
 ! D65   D(6,7,13,12)           -0.811          estimate D2E/DX2                !
 ! D66   D(6,7,13,86)         -179.9298         estimate D2E/DX2                !
 ! D67   D(8,7,13,12)          179.0479         estimate D2E/DX2                !
 ! D68   D(8,7,13,86)           -0.0709         estimate D2E/DX2                !
 ! D69   D(7,8,9,1)              0.8105         estimate D2E/DX2                !
 ! D70   D(7,8,9,25)           179.4881         estimate D2E/DX2                !
 ! D71   D(22,8,9,1)          -178.7102         estimate D2E/DX2                !
 ! D72   D(22,8,9,25)           -0.0326         estimate D2E/DX2                !
 ! D73   D(7,8,22,23)         -179.7807         estimate D2E/DX2                !
 ! D74   D(7,8,22,84)            0.9902         estimate D2E/DX2                !
 ! D75   D(9,8,22,23)           -0.3902         estimate D2E/DX2                !
 ! D76   D(9,8,22,84)         -179.6193         estimate D2E/DX2                !
 ! D77   D(1,9,25,24)          178.8261         estimate D2E/DX2                !
 ! D78   D(1,9,25,78)           -0.6448         estimate D2E/DX2                !
 ! D79   D(8,9,25,24)            0.3988         estimate D2E/DX2                !
 ! D80   D(8,9,25,78)         -179.0721         estimate D2E/DX2                !
 ! D81   D(6,10,11,12)          -1.0222         estimate D2E/DX2                !
 ! D82   D(6,10,11,26)         179.0962         estimate D2E/DX2                !
 ! D83   D(89,10,11,12)        178.9687         estimate D2E/DX2                !
 ! D84   D(89,10,11,26)         -0.9129         estimate D2E/DX2                !
 ! D85   D(10,11,12,13)          0.2823         estimate D2E/DX2                !
 ! D86   D(10,11,12,87)       -179.5033         estimate D2E/DX2                !
 ! D87   D(26,11,12,13)       -179.8343         estimate D2E/DX2                !
 ! D88   D(26,11,12,87)          0.3801         estimate D2E/DX2                !
 ! D89   D(10,11,26,34)        -27.8641         estimate D2E/DX2                !
[...]
 Alpha virt. eigenvalues --    2.67650   2.67689   2.67735   2.67903   2.67957
 Alpha virt. eigenvalues --    2.68406   2.68697   2.69416   2.69613   2.70038
 Alpha virt. eigenvalues --    2.70128   2.70489   2.70599   2.70712   2.70840
 Alpha virt. eigenvalues --    2.71366   2.71412   2.71828   2.72308   2.72448
 Alpha virt. eigenvalues --    2.72800   2.73699   2.73817   2.74119   2.74793
 Alpha virt. eigenvalues --    2.74924   2.75597   2.76350   2.76625   2.76947
 Alpha virt. eigenvalues --    2.77388   2.77815   2.78334   2.78602   2.79157
 Alpha virt. eigenvalues --    2.79382   2.79767   2.80103   2.80407   2.81280
 Alpha virt. eigenvalues --    2.81797   2.82244   2.82604   2.82969   2.83139
 Alpha virt. eigenvalues --    2.84686   2.85223   2.85844   2.85964   2.86181
 Alpha virt. eigenvalues --    2.86758   2.86915   2.87280   2.87734   2.87872
 Alpha virt. eigenvalues --    2.88648   2.89200   2.89654   2.90467   2.91447
 Alpha virt. eigenvalues --    2.92206   2.92582   2.92884   2.95420   2.96919
 Alpha virt. eigenvalues --    2.97003   2.97609   2.98221   2.98634   2.99147
 Alpha virt. eigenvalues --    2.99541   2.99806   2.99948   3.00404   3.00487
 Alpha virt. eigenvalues --    3.00759   3.00845   3.01047   3.01141   3.01809
 Alpha virt. eigenvalues --    3.02100   3.02848   3.03414   3.04042   3.04239
 Alpha virt. eigenvalues --    3.05924   3.06813   3.07219   3.08151   3.08393
 Alpha virt. eigenvalues --    3.08989   3.09582   3.10127   3.11247   3.11524
 Alpha virt. eigenvalues --    3.14282   3.15288   3.16906   3.19750   3.23228
 Alpha virt. eigenvalues --    3.23568   3.26032   3.27746   3.29000   3.29192
 Alpha virt. eigenvalues --    3.29679   3.29838   3.33665   3.33947   3.37858
 Alpha virt. eigenvalues --    3.39500   3.44494   3.44549   3.44890   3.45201
 Alpha virt. eigenvalues --    3.45673   3.45687   3.45707   3.46125   3.53516
 Alpha virt. eigenvalues --    3.53748   4.05163   4.05636   4.05695   4.05713
 Alpha virt. eigenvalues --    4.06367   4.06457   4.06475   4.06567   4.06842
 Alpha virt. eigenvalues --    4.07027   4.07124   4.07624   4.10472   4.10644
 Alpha virt. eigenvalues --    4.12993   4.13042   4.13122   4.13615   4.13779
 Alpha virt. eigenvalues --    4.14048   4.14123   4.14201   4.14373   4.14623
 Alpha virt. eigenvalues --    4.15056   4.15120   4.15840   4.16391   4.16526
 Alpha virt. eigenvalues --    4.16951   4.17078   4.17203   4.18015   4.18397
 Alpha virt. eigenvalues --    4.18895   4.19080   4.19965   4.22506   4.23538
 Alpha virt. eigenvalues --    4.23681   4.24700   4.24802   4.24991   4.25084
 Alpha virt. eigenvalues --    4.25752   4.25872   4.26138   4.26201   4.27048
 Alpha virt. eigenvalues --    4.27605   4.27928   4.28269   4.32896   4.33060
 Alpha virt. eigenvalues --    4.33287   4.33804   4.34037   4.35004   4.35299
 Alpha virt. eigenvalues --    4.35681   4.36179   4.36573   4.36936   4.37284
 Alpha virt. eigenvalues --    4.37461   4.38101   4.38478   4.38737   4.39942
 Alpha virt. eigenvalues --    4.40044   4.40459   4.40988   4.45012   4.45142
 Alpha virt. eigenvalues --    4.47629   4.47782   4.48353   4.50021   4.50158
 Alpha virt. eigenvalues --    4.50553   4.51167   4.55278   4.55577   4.58005
 Alpha virt. eigenvalues --    4.62915   4.63135   4.64730   4.66070   4.66560
 Alpha virt. eigenvalues --    4.78556   4.80489   4.80662   4.80900   4.81529
 Alpha virt. eigenvalues --    4.86316   4.86463   4.88566   4.88767   4.90910
 Alpha virt. eigenvalues --    4.91836   4.92559
          Condensed to atoms (all electrons):
 Mulliken atomic charges:
              1
     1  C   -0.272338
     2  C    0.124949
     3  C    0.071983
     4  C    0.074451
     5  C    0.125392
     6  C    0.124842
     7  C    0.071227
     8  C    0.070736
     9  C    0.123957
    10  C   -0.255301
    11  C    0.302590
    12  C   -0.184345
    13  C   -0.204336
    14  C   -0.205099
    15  C   -0.188414
    16  C    0.292728
    17  C   -0.248453
    18  C   -0.245583
    19  C    0.304669
    20  C   -0.188639
    21  C   -0.204997
    22  C   -0.205789
    23  C   -0.177315
    24  C    0.299017
    25  C   -0.252510
    26  N   -0.669410
    27  N   -0.668331
    28  N   -0.653446
    29  N   -0.653868
    30  C    0.196559
    31  C    0.199995
    32  C    0.326078
    33  C    0.319281
    34  C    0.315472
    35  C    0.218016
    36  C    0.314382
    37  C    0.225233
    38  C   -0.180515
    39  C   -0.204200
    40  C    0.376743
    41  C   -0.184132
    42  C   -0.168866
    43  C   -0.177659
    44  C   -0.203561
    45  C    0.379843
    46  C   -0.191681
    47  C   -0.173872
    48  C    0.334371
    49  C   -0.256426
    50  C    0.380939
    51  C   -0.181297
    52  C   -0.176511
    53  C    0.334935
    54  C   -0.255294
    55  C    0.381618
    56  C   -0.189183
    57  C   -0.183047
    58  C   -0.179260
    59  C   -0.221416
    60  C    0.386139
    61  C   -0.271788
    62  C    0.375494
    63  C   -0.167011
    64  C   -0.208391
    65  C    0.375602
    66  C   -0.185130
    67  C   -0.178765
    68  C   -0.170218
    69  C   -0.195622
    70  C    0.377600
    71  C   -0.205722
    72  C   -0.188608
    73  C   -0.172631
    74  C   -0.213572
    75  C    0.385309
    76  C   -0.273241
    77  C    0.374321
    78  H    0.150758
    79  H    0.146494
    80  H    0.139855
    81  H    0.125466
    82  H    0.127413
    83  H    0.141472
    84  H    0.124091
    85  H    0.133888
    86  H    0.124795
    87  H    0.132158
    88  H    0.141729
    89  H    0.153144
    90  O   -0.511725
    91  C   -0.211223
    92  O   -0.512468
    93  C   -0.210898
    94  O   -0.512163
    95  O   -0.511161
    96  C   -0.211914
    97  C   -0.211823
    98  H    0.135044
    99  H    0.141808
   100  H    0.140868
   101  H    0.129071
   102  H    0.141946
   103  H    0.139514
   104  H    0.149616
   105  H    0.137414
   106  H    0.127579
   107  H    0.138277
   108  H    0.150887
   109  H    0.128059
   110  H    0.143847
   111  H    0.133517
   112  H    0.139517
   113  H    0.148159
   114  H    0.147787
   115  H    0.165047
   116  H    0.149347
   117  H    0.149035
   118  H    0.166084
   119  H    0.165533
   120  H    0.149427
   121  H    0.148833
   122  H    0.146263
   123  H    0.150037
   124  H    0.166116
   125  H    0.140429
   126  O   -0.504038
   127  H    0.137792
   128  H    0.151957
   129  H    0.143122
   130  H    0.128709
   131  H    0.140780
   132  O   -0.503759
   133  H    0.135996
   134  O   -0.525055
   135  H    0.142704
   136  H    0.155029
   137  H    0.150756
   138  H    0.135348
   139  H    0.136615
   140  O   -0.524458
   141  O   -0.512747
   142  C   -0.216069
   143  O   -0.511665
   144  C   -0.212842
   145  O   -0.511633
   146  C   -0.212847
   147  O   -0.512221
   148  C   -0.213742
   149  H    0.165562
   150  H    0.158116
   151  H    0.152098
   152  H    0.168497
   153  H    0.152092
   154  H    0.152496
   155  H    0.167816
   156  H    0.152985
   157  H    0.151272
   158  H    0.168123
   159  H    0.153244
   160  H    0.150901
   161  C   -0.213399
   162  C   -0.214149
   163  H    0.128690
   164  C   -0.213829
   165  C   -0.213853
   166  H    0.171827
   167  H    0.152678
   168  H    0.154387
   169  H    0.169919
   170  H    0.151858
   171  H    0.155212
   172  H    0.158204
   173  H    0.168081
   174  H    0.140574
   175  H    0.136063
   176  H    0.163969
   177  H    0.167211
 Sum of Mulliken atomic charges =   0.00000
 Mulliken charges with hydrogens summed into heavy atoms:
              1
     1  C   -0.272338
     2  C    0.124949
     3  C    0.071983
     4  C    0.074451
     5  C    0.125392
     6  C    0.124842
     7  C    0.071227
     8  C    0.070736
     9  C    0.123957
    10  C   -0.102157
    11  C    0.302590
    12  C   -0.052187
    13  C   -0.079542
    14  C   -0.077685
    15  C   -0.046942
    16  C    0.292728
    17  C   -0.106724
    18  C   -0.099090
    19  C    0.304669
    20  C   -0.048783
    21  C   -0.079531
    22  C   -0.081698
    23  C   -0.043426
    24  C    0.299017
    25  C   -0.101752
    26  N   -0.669410
    27  N   -0.668331
    28  N   -0.653446
    29  N   -0.653868
    30  C    0.196559
    31  C    0.199995
    32  C    0.326078
    33  C    0.319281
    34  C    0.315472
    35  C    0.218016
    36  C    0.314382
    37  C    0.225233
    38  C   -0.038569
    39  C   -0.075129
    40  C    0.376743
    41  C   -0.049088
    42  C   -0.027058
    43  C   -0.036791
    44  C   -0.074871
    45  C    0.379843
    46  C   -0.052167
    47  C   -0.024256
    48  C    0.334371
    49  C   -0.119811
    50  C    0.380939
    51  C   -0.045949
    52  C   -0.025754
    53  C    0.334935
    54  C   -0.119298
    55  C    0.381618
    56  C   -0.046479
    57  C   -0.028018
    58  C   -0.027303
    59  C   -0.083624
    60  C    0.386139
    61  C   -0.131359
    62  C    0.375494
    63  C   -0.023163
    64  C   -0.080333
    65  C    0.375602
    66  C   -0.051613
    67  C   -0.039248
    68  C   -0.019331
    69  C   -0.057345
    70  C    0.377600
    71  C   -0.078142
    72  C   -0.051195
    73  C   -0.029509
    74  C   -0.084863
    75  C    0.385309
    76  C   -0.132461
    77  C    0.374321
    90  O   -0.511725
    91  C    0.251193
    92  O   -0.512468
    93  C    0.250094
    94  O   -0.512163
    95  O   -0.511161
    96  C    0.252552
    97  C    0.251969
   126  O   -0.504038
   132  O   -0.503759
   134  O   -0.525055
   140  O   -0.524458
   141  O   -0.512747
   142  C    0.259707
   143  O   -0.511665
   144  C    0.259425
   145  O   -0.511633
   146  C    0.259226
   147  O   -0.512221
   148  C    0.259343
   161  C    0.263589
   162  C    0.252709
   164  C    0.253414
   165  C    0.265038
 Sum of Mulliken charges with hydrogens summed into heavy atoms =   0.00000
 Electronic spatial extent (au):  <R**2>=         123570.2732
 Charge=              0.0000 electrons
 Dipole moment (field-independent basis, Debye):
    X=             -1.5140    Y=              1.4067    Z=             -3.0995  Tot=              3.7253
 Quadrupole moment (field-independent basis, Debye-Ang):
   XX=           -492.1100   YY=           -537.5703   ZZ=           -529.1964
   XY=             10.7227   XZ=             10.2792   YZ=              0.8694
 Traceless Quadrupole moment (field-independent basis, Debye-Ang):
   XX=             27.5156   YY=            -17.9447   ZZ=             -9.5709
   XY=             10.7227   XZ=             10.2792   YZ=              0.8694
 Octapole moment (field-independent basis, Debye-Ang**2):
  XXX=            129.3607  YYY=            188.5119  ZZZ=            -30.3865  XYY=           -254.4517
  XXY=             -3.9631  XXZ=            -55.3023  XZZ=             60.2022  YZZ=            136.6962
  YYZ=           -128.1589  XYZ=            -19.7983
 Hexadecapole moment (field-independent basis, Debye-Ang**3):
 XXXX=         -63117.4519 YYYY=         -63477.5544 ZZZZ=         -24837.3283 XXXY=            696.9536
 XXXZ=            391.2095 YYYX=             59.5250 YYYZ=           1270.8575 ZZZX=             11.3814
 ZZZY=           -175.4427 XXYY=         -20836.1758 XXZZ=         -13197.7848 YYZZ=         -13625.2368
 XXYZ=           -527.0162 YYXZ=           -436.3761 ZZXY=            290.1173
 N-N= 1.925286732654D+04 E-N=-4.875465152941D+04  KE= 4.365252339337D+03
 Leave Link  601 at Wed Aug  6 17:04:09 2014, MaxMem= 2147483648 cpu:      57.1
 (Enter /opt/g09/l9999.exe)
 1\1\GINC-CHPC-SCANDIUM\FOpt\RB3LYP\6-31G(d)\C85H76N4O12\JARVIST\06-Aug
 -2014\0\\#p opt b3lyp/6-31g*\\Auto Spiro\\0,1\C,12.8869388628,11.67135
 49312,12.8063004997\C,11.5838760861,10.9820851617,12.3838619388\C,11.8
 212083143,9.6315417257,12.0602469533\C,13.2450933326,9.3451135004,12.2
 440958488\C,13.8915644868,10.5194224465,12.6779551304\C,13.2550581882,
 12.8927106109,11.9547547856\C,13.3894841427,14.0368526806,12.765026304
 7\C,13.1331122106,13.6630073858,14.1568749003\C,12.8284423227,12.28881
 45274,14.2094253702\C,13.4405785573,12.9508595131,10.582699012\C,13.78
 82537692,14.1787214607,9.9850245524\C,13.9207990571,15.3233372503,10.7
 97233881\C,13.717180208,15.2589706394,12.1733607631\C,13.9925492063,8.
 1789047751,12.0657977449\C,15.3645893774,8.194761587,12.311354249\C,16
 .0093061521,9.3655605423,12.7536109442\C,15.2520233334,10.5400610317,1
 2.936218047\C,10.3161473158,11.5328453801,12.2999665455\C,9.2352016441
 ,10.723352297,11.89545249\C,9.4729690051,9.3710654379,11.5770347127\C,
 10.7543338147,8.829283573,11.6496765482\C,13.1479963024,14.4076668329,
 15.3389599441\C,12.8501704201,13.7833730912,16.5473735573\C,12.5468879
 938,12.4085324969,16.602196481\C,12.5438151235,11.6571152031,15.409938
 5052\N,14.0020883309,14.278978578,8.586662711\N,17.4071991578,9.383276
 4596,13.0084074739\N,7.9299140666,11.2678730128,11.8338943575\N,12.264
 7171643,11.7993815627,17.8500808947\C,13.0412606533,12.1598537569,18.9
 877138928\C,7.5078810876,12.1728674365,12.8495390744\C,11.3153495765,1
 0.7489146756,17.9641037973\C,6.9803789291,10.806704806,10.8817056291\C
 ,14.5009264743,13.1736638497,7.8389039686\C,13.5250983878,15.425922963
 6,7.8887768324\C,18.0742356582,8.219990201,13.4868469538\C,18.17993312
 72,10.4795616445,12.5277752572\C,19.3009554287,7.8137934509,12.9530692
 561\C,19.9691879853,6.690453196,13.4469261693\C,19.401878681,5.9368346
 098,14.478242133\C,18.1665187326,6.3308217851,15.0126770246\C,17.51888
 175,7.45976309,14.5327756721\C,13.9447815624,12.8272356127,6.604332910
 1\C,14.4592276259,11.7700718256,5.8493873412\C,15.5350120843,11.022712
 2007,6.3366413862\C,16.0902226885,11.3551644763,7.581030042\C,15.58871
 83027,12.419653873,8.3158920794\C,14.3523128739,16.1463276164,7.005721
 9785\C,13.8521184837,17.2368441586,6.2847566724\C,12.5279685317,17.648
 2019984,6.4560916916\C,11.7019766561,16.9576075477,7.3550191163\C,12.1
 974300113,15.8605682131,8.0443896081\C,19.1149178142,11.1375620393,13.
 3494086121\C,19.904020961,12.1780958488,12.8455838082\C,19.752932321,1
 2.6018494892,11.5230486521\C,18.8053982954,11.9736313084,10.7014135819
 \C,18.0460888992,10.9255194063,11.2014228892\C,7.6003082339,11.8334802
 545,14.1979261271\C,7.2136363,12.70906606,15.2170118397\C,6.6928520014
 ,13.9571759646,14.8688021659\C,6.5778076939,14.3227200963,13.518554973
 5\C,6.9936696968,13.4522220477,12.5135044325\C,7.3452977646,10.5907637
 797,9.5473704869\C,6.4163251825,10.1418392394,8.6076422632\C,5.0861901
 134,9.9262179551,8.9859460368\C,4.7088066707,10.1554430851,10.31514606
 07\C,5.6440386721,10.5792659091,11.2506973671\C,10.0979376863,10.79713
 44339,17.2592560499\C,9.1643844179,9.7794207518,17.3868636774\C,9.4037
 177401,8.6910759712,18.2394064555\C,10.6031606716,8.6383269636,18.9535
 712577\C,11.5503526272,9.6556863753,18.8037939749\C,14.4293606464,12.0
 398548597,18.9770957355\C,15.2196361318,12.4026081842,20.0720183887\C,
 14.5925759836,12.8782674697,21.2250614104\C,13.1949867239,13.004191533
 ,21.26829202\C,12.4214497357,12.6657014641,20.1604730418\H,12.32290813
 11,10.5949147568,15.4400123765\H,10.145229829,12.5766369337,12.5431644
 264\H,8.6394034741,8.7442836283,11.2787546538\H,10.9075593511,7.781069
 1155,11.4047370253\H,13.5205510427,7.2622884182,11.7208108865\H,15.949
 9629741,7.2945166777,12.1574504445\H,13.3738043648,15.4711974923,15.32
 46990719\H,12.844182816,14.3588064427,17.4674603481\H,13.8278853618,16
 .1578779941,12.7749271732\H,14.18349887,16.2696448076,10.3354864459\H,
 15.7394971802,11.4501214701,13.2724744913\H,13.3194837489,12.064149415
 7,9.9693464565\O,8.4094452133,7.750869593,18.3012363623\C,8.6175313703
 ,6.6197357548,19.127230417\O,4.0918602352,9.4985492081,8.1454472529\C,
 4.4250276343,9.2595584485,6.790185781\O,19.9614087863,4.8156159336,15.
 0309510508\O,16.1144042869,9.9653280219,5.6885881139\C,15.5886101326,9
 .5890238655,4.4284529372\C,21.2078946509,4.3761312494,14.5221259055\H,
 17.7373133603,5.7420004433,15.8176385811\H,16.5679636629,7.7573337766,
 14.9636726802\H,13.1040139231,13.3951642744,6.2191774538\H,20.92178754
 38,6.413400292,13.0096077671\H,19.7480286831,8.3846744085,12.145706894
 3\H,16.929506489,10.7704389021,7.9458814119\H,16.0362461731,12.6687915
 607,9.27301766\H,12.4837723061,9.5967967509,19.3546156847\H,10.8237702
 065,7.8097738336,19.617392837\H,8.2253223802,9.8113224764,16.841978786
 4\H,9.8887170708,11.6395071209,16.6077761037\H,6.7396424911,9.98275049
 38,7.5849603656\H,8.368900276,10.7768220431,9.2383911187\H,3.675536436
 6,9.9809488586,10.5995720339\H,5.3399968288,10.7402522405,12.280180646
 \H,5.1858134636,8.4729217559,6.6908762908\H,4.7874561322,10.1702576463
 ,6.2935811971\H,3.5030660661,8.9300156888,6.3066260957\H,15.6700643277
 ,10.4032866954,3.695295233\H,14.5370518401,9.2795601234,4.5033607034\H
 ,16.1892271198,8.7413299497,4.0924653437\H,21.4690539248,3.4834739087,
 15.0941953298\H,21.9917187278,5.1340987347,14.6572485395\H,21.14280409
 55,4.1158915752,13.4566685904\H,8.7436474102,6.9037413967,20.181322822
 3\H,9.4937282586,6.0393626736,18.8071248532\H,7.7218339042,6.003459250
 1,19.0262206364\H,6.1806787684,15.3047664752,13.2938495837\O,6.9450381
 916,13.7453277513,11.1863110704\H,7.3104771543,12.4018836784,16.251356
 104\H,8.0005066643,10.8570215023,14.4546348741\H,14.9024078809,11.6568
 107992,18.0777125376\H,16.2960359915,12.296005329,20.0142012074\H,12.7
 516099686,13.3896927235,22.1779286368\O,11.0675203779,12.7914078694,20
 .1127938244\H,20.6159875316,12.6341294505,13.5226536085\O,19.348684837
 2,10.7520101926,14.6486091932\H,18.6982437328,12.3059973443,9.67381709
 1\H,17.3254375452,10.4269914883,10.5599249593\H,11.5508594857,15.31236
 85698,8.7229993184\H,10.6743380737,17.2833373404,7.4793304455\H,14.533
 0400103,17.7398980886,5.6090211715\O,15.653467416,15.7784233632,6.7567
 692337\O,6.2668387739,14.9006523372,15.7605475637\C,6.3780693217,14.60
 67494834,17.1437843373\O,11.9545309236,18.7037650186,5.8050471065\C,12
 .7483536771,19.4291882425,4.881008909\O,20.4694230431,13.6124112004,10
 .9468397019\C,21.4465568612,14.2715378927,11.7350219076\O,15.240752677
 9,13.2535487587,22.3682744248\C,16.6550333062,13.1522683944,22.3960237
 677\H,6.0011994557,15.487295485,17.6678368782\H,7.4213161005,14.428127
 0121,17.4356702725\H,5.7729310286,13.7334649191,17.4215518261\H,16.961
 0844247,13.4991150083,23.3848457414\H,17.1205788741,13.7857037932,21.6
 292215598\H,16.9887094602,12.1154568887,22.2561330932\H,21.8994598465,
 15.0228576639,11.0852271282\H,22.2225610893,13.575989573,12.0815625415
 \H,20.9966285006,14.7685606061,12.6049414331\H,12.1002182558,20.208366
 4008,4.4752927068\H,13.1025164927,18.7887316524,4.0622437396\H,13.6136
 390382,19.8962059715,5.3703644733\C,10.3908334976,13.2511287753,21.271
 1383999\C,18.2922166164,11.0216907264,15.5718896583\H,14.0041447976,11
 .5377803198,4.8931750697\C,16.5716600111,15.9896967898,7.8309490472\C,
 6.3953891491,14.9905848923,10.7877965611\H,6.4365439337,14.9969693515,
 9.6972255937\H,6.9794986992,15.8338055009,11.1795414547\H,5.3520186529
 ,15.0922922738,11.1134275248\H,9.3301432101,13.2533919146,21.013935700
 7\H,10.7020554015,14.2684535415,21.5433414232\H,10.5560108975,12.58285
 77273,22.1261712066\H,18.643366745,10.6661413409,16.5432357094\H,17.37
 18340966,10.4940289617,15.302170738\H,18.0907669604,12.1001102945,15.6
 276318158\H,16.6350995075,17.0572293897,8.0829136964\H,17.5427017311,1
 5.6429341941,7.4711811304\H,16.291784532,15.422027463,8.724088076\\Ver
 sion=EM64L-G09RevA.02\State=1-A\HF=-4406.3661411\RMSD=8.668e-09\RMSF=9
 .445e-07\Dipole=0.8806361,0.9443711,0.6933618\Quadrupole=-14.247683,-9
 .223569,23.471252,1.5311872,4.5200012,-1.9179128\PG=C01 [X(C85H76N4O12
 )]\\@


 THE ATTENTION SPAN OF A COMPUTER IS AS LONG
 AS ITS EXTENSION CORD.
 Job cpu time:  5 days  1 hours 25 minutes 11.2 seconds.
 File lengths (MBytes):  RWF=   1717 Int=      0 D2E=      0 Chk=    170 Scr=      1
 Normal termination of Gaussian 09 at Wed Aug  6 17:04:09 2014.
