 Entering Gaussian System, Link 0=g09
 Input=b3lyp-631gs_opt/HF_1.com
 Output=b3lyp-631gs_opt/HF_1.log
 Initial command:
 /opt/g09/l1.exe /home/jarvist/super_spiro/Gau-15065.inp -scrdir=/home/jarvist/super_spiro/
 Default is to use a total of   8 processors:
                                8 via shared-memory
                                1 via Linda
 Entering Link 1 = /opt/g09/l1.exe PID=     15067.
  
 Copyright (c) 1988,1990,1992,1993,1995,1998,2003,2009, Gaussian, Inc.
                  All Rights Reserved.
  
 This is part of the Gaussian(R) 09 program.  It is based on
 the Gaussian(R) 03 system (copyright 2003, Gaussian, Inc.),
 the Gaussian(R) 98 system (copyright 1998, Gaussian, Inc.),
 the Gaussian(R) 94 system (copyright 1995, Gaussian, Inc.),
 the Gaussian 92(TM) system (copyright 1992, Gaussian, Inc.),
 the Gaussian 90(TM) system (copyright 1990, Gaussian, Inc.),
 the Gaussian 88(TM) system (copyright 1988, Gaussian, Inc.),
 the Gaussian 86(TM) system (copyright 1986, Carnegie Mellon
 University), and the Gaussian 82(TM) system (copyright 1983,
 Carnegie Mellon University). Gaussian is a federally registered
 trademark of Gaussian, Inc.
  
 This software contains proprietary and confidential information,
 including trade secrets, belonging to Gaussian, Inc.
  
 This software is provided under written license and may be
 used, copied, transmitted, or stored only in accord with that
 written license.
  
 The following legend is applicable only to US Government
 contracts under FAR:
  
                    RESTRICTED RIGHTS LEGEND
  
 Use, reproduction and disclosure by the US Government is
 subject to restrictions as set forth in subparagraphs (a)
 and (c) of the Commercial Computer Software - Restricted
 Rights clause in FAR 52.227-19.
  
 Gaussian, Inc.
 340 Quinnipiac St., Bldg. 40, Wallingford CT 06492
  
  
 ---------------------------------------------------------------
 Warning -- This program may not be used in any manner that
 competes with the business of Gaussian, Inc. or will provide
 assistance to any competitor of Gaussian, Inc.  The licensee
 of this program is prohibited from giving any competitor of
 Gaussian, Inc. access to this program.  By using this program,
 the user acknowledges that Gaussian, Inc. is engaged in the
 business of creating and licensing software in the field of
 computational chemistry and represents and warrants to the
 licensee that it is not a competitor of Gaussian, Inc. and that
 it will not use this program in any manner prohibited above.
 ---------------------------------------------------------------
  

 Cite this work as:
 Gaussian 09, Revision A.02,
 M. J. Frisch, G. W. Trucks, H. B. Schlegel, G. E. Scuseria, 
 M. A. Robb, J. R. Cheeseman, G. Scalmani, V. Barone, B. Mennucci, 
 G. A. Petersson, H. Nakatsuji, M. Caricato, X. Li, H. P. Hratchian, 
 A. F. Izmaylov, J. Bloino, G. Zheng, J. L. Sonnenberg, M. Hada, 
 M. Ehara, K. Toyota, R. Fukuda, J. Hasegawa, M. Ishida, T. Nakajima, 
 Y. Honda, O. Kitao, H. Nakai, T. Vreven, J. A. Montgomery, Jr., 
 J. E. Peralta, F. Ogliaro, M. Bearpark, J. J. Heyd, E. Brothers, 
 K. N. Kudin, V. N. Staroverov, R. Kobayashi, J. Normand, 
 K. Raghavachari, A. Rendell, J. C. Burant, S. S. Iyengar, J. Tomasi, 
 M. Cossi, N. Rega, J. M. Millam, M. Klene, J. E. Knox, J. B. Cross, 
 V. Bakken, C. Adamo, J. Jaramillo, R. Gomperts, R. E. Stratmann, 
 O. Yazyev, A. J. Austin, R. Cammi, C. Pomelli, J. W. Ochterski, 
 R. L. Martin, K. Morokuma, V. G. Zakrzewski, G. A. Voth, 
 P. Salvador, J. J. Dannenberg, S. Dapprich, A. D. Daniels, 
 O. Farkas, J. B. Foresman, J. V. Ortiz, J. Cioslowski, 
 and D. J. Fox, Gaussian, Inc., Wallingford CT, 2009.
 
 ******************************************
 Gaussian 09:  EM64L-G09RevA.02 11-Jun-2009
                 6-Aug-2014 
 ******************************************
 %mem=16GB
 %nprocs=24
 Will use up to   24 processors via shared memory.
 Default route:  MaxDisk=100GB
 -------------------
 #p opt b3lyp/6-31g*
 -------------------
 1/14=-1,18=20,19=15,26=3,38=1/1,3;
 2/9=110,12=2,17=6,18=5,40=1/2;
 3/5=1,6=6,7=1,11=2,16=1,25=1,30=1,71=1,74=-5/1,2,3;
 4//1;
 5/5=2,38=5/2;
 6/7=2,8=2,9=2,10=2,28=1/1;
 7//1,2,3,16;
 1/14=-1,18=20,19=15/3(2);
 2/9=110/2;
 99//99;
 2/9=110/2;
 3/5=1,6=6,7=1,11=2,16=1,25=1,30=1,71=1,74=-5/1,2,3;
 4/5=5,16=3/1;
 5/5=2,38=5/2;
 7//1,2,3,16;
 1/14=-1,18=20,19=15/3(-5);
 2/9=110/2;
 6/7=2,8=2,9=2,10=2,19=2,28=1/1;
 99/9=1/99;
 Leave Link    1 at Wed Aug  6 20:29:52 2014, MaxMem= 2147483648 cpu:       1.6
 (Enter /opt/g09/l101.exe)
 ----------
 Auto Spiro
 ----------
 Symbolic Z-matrix:
 Charge =  0 Multiplicity = 1
 C                     12.89419  -11.24263   0.16805 
 C                     11.60306  -11.94504  -0.30177 
 C                     11.87745  -13.29023  -0.62504 
 C                     13.26852  -13.58337  -0.32036 
 C                     13.91123  -12.40203   0.10432 
 C                     13.2419  -10.02161  -0.70945 
 C                     13.33287  -8.86357   0.09019 
 C                     13.13922  -9.22692   1.48444 
 C                     12.82867  -10.60002   1.56939 
 C                     13.39278  -9.93954  -2.08994 
 C                     13.60406  -8.67916  -2.68404 
 C                     13.67056  -7.5284   -1.88124 
 C                     13.54268  -7.61468  -0.50056 
 C                     13.96909  -14.79183  -0.35939 
 C                     15.30641  -14.81443   0.01592 
 C                     15.96193  -13.63937   0.41819 
 C                     15.25762  -12.41897   0.45579 
 C                     10.32819  -11.4206  -0.49125 
 C                     9.32327  -12.23959  -1.04497 
 C                     9.61472  -13.56971  -1.38981 
 C                     10.88101  -14.09977  -1.17647 
 C                     13.24266  -8.45535   2.64494 
 C                     13.02273  -9.05176   3.88007 
 C                     12.68533  -10.41204   3.97345 
 C                     12.5841  -11.19279   2.80437 
 N                     13.72824  -8.54455  -4.09547 
 N                     17.32829  -13.7143   0.81248 
 N                     8.01474  -11.7359  -1.28787 
 N                     12.47211  -10.983    5.25959 
 C                     13.29854  -10.58608   6.34072 
 C                     7.32052  -11.02968  -0.2759 
 C                     11.32841  -11.78158   5.5023 
 C                     7.33429  -12.11274  -2.47319 
 C                     14.60209  -9.39477  -4.81533 
 C                     13.12274  -7.43887  -4.74319 
 C                     17.76501  -14.81785   1.58753 
 C                     18.27612  -12.80734   0.27979 
 C                     18.83195  -15.65347   1.17556 
 C                     19.25414  -16.72958   1.96886 
 C                     18.59074  -17.00955   3.16061 
 C                     17.52308  -16.22181   3.58553 
 C                     17.12545  -15.12049   2.81682 
 C                     14.16307  -10.09804  -5.95845 
 C                     15.05209  -10.88742  -6.7025 
 C                     16.38385  -10.97953  -6.30549 
 C                     16.85127  -10.29164  -5.1859 
 C                     15.96761  -9.49241  -4.44968 
 C                     13.86278  -6.54529  -5.55568 
 C                     13.23718  -5.46837  -6.19948 
 C                     11.87589  -5.24699  -6.00732 
 C                     11.12173  -6.09364  -5.19789 
 C                     11.73452  -7.19424  -4.58547 
 C                     19.14135  -12.07599   1.12277 
 C                     20.12962  -11.23767   0.58604 
 C                     20.25589  -11.12468  -0.79647 
 C                     19.42167  -11.8383  -1.6566 
 C                     18.44248  -12.68539  -1.12211 
 C                     7.11421  -11.61743   0.99674 
 C                     6.36413  -10.95643   1.97758 
 C                     5.8001   -9.71367   1.68966 
 C                     5.97474  -9.11566   0.44386 
 C                     6.73478  -9.77104  -0.53577 
 C                     7.92724  -11.87365  -3.73922 
 C                     7.28184  -12.25719  -4.92181 
 C                     6.02061  -12.84558  -4.8588 
 C                     5.4016   -13.07884  -3.63362 
 C                     6.06243  -12.73508  -2.44582 
 C                     10.03235  -11.2762   5.23326 
 C                     8.89292  -12.03643   5.52475 
 C                     9.03779  -13.29545   6.10704 
 C                     10.29773  -13.81275   6.39903 
 C                     11.44039  -13.05822   6.09564 
 C                     14.70766  -10.71116   6.24023 
 C                     15.54498  -10.30203   7.28578 
 C                     14.98664  -9.80019   8.45954 
 C                     13.60659  -9.68113   8.59941 
 C                     12.76654  -10.05281   7.54014 
 H                     12.35136  -12.25531   2.88495 
 H                     10.10361  -10.37953  -0.25564 
 H                     8.82246  -14.18768  -1.81135 
 H                     11.08784  -15.13919  -1.43575 
 H                     13.47698  -15.71097  -0.68076 
 H                     15.87154  -15.74551  -0.01233 
 H                     13.48877  -7.39387   2.58801 
 H                     13.08926  -8.46426   4.79523 
 H                     13.60773  -6.71319   0.11057 
 H                     13.84289  -6.56497  -2.3602 
 H                     15.76435  -11.51637   0.79951 
 H                     13.3119  -10.82519  -2.72135 
 H                     17.01882  -16.45022   4.5209 
 O                     16.12452  -14.27385   3.18061 
 O                     12.84248  -9.94404  -6.27874 
 H                     14.70926  -11.4343  -7.57718 
 H                     20.07628  -17.36313   1.64573 
 O                     19.39257  -15.35417  -0.03415 
 H                     17.90241  -10.34497  -4.91214 
 O                     16.3384  -8.72741  -3.39086 
 O                     12.71473  -13.48243   6.35326 
 H                     10.38667  -14.79782   6.85013 
 H                     7.9004   -11.63398   5.33556 
 O                     9.99612  -10.01404   4.73476 
 H                     7.74971  -12.07982  -5.88652 
 O                     9.13863  -11.25516  -3.71129 
 H                     4.42305  -13.55133  -3.60352 
 O                     5.54832  -12.99007  -1.20579 
 H                     5.52901  -8.14492   0.24255 
 O                     6.95104  -9.26376  -1.78696 
 H                     5.20788  -9.20288   2.44908 
 H                     6.19023  -11.42359   2.9442 
 O                     7.64619  -12.85656   1.15374 
 O                     15.16622  -11.24962   5.07785 
 H                     16.62422  -10.39377   7.19436 
 H                     15.63871  -9.49394   9.27729 
 H                     13.18905  -9.27384   9.51661 
 O                     11.40808  -9.91062   7.58088 
 H                     20.78978  -10.6718   1.23802 
 O                     18.95311  -12.25618   2.46505 
 H                     21.02469  -10.47261  -1.21157 
 H                     19.55913  -11.76607  -2.73305 
 O                     17.63181  -13.47605  -1.87168 
 O                     11.06464  -8.09465  -3.81533 
 H                     10.05909  -5.90966  -5.06182 
 H                     11.39536  -4.3986   -6.49467 
 H                     13.8129  -4.7891   -6.82284 
 O                     15.20352  -6.79199  -5.64646 
 H                     18.90956  -17.85712   3.76731 
 H                     17.07303  -11.59451  -6.88439 
 H                     5.51298  -13.131   -5.78005 
 H                     8.15007  -13.88245   6.34431 
 C                     10.82806  -9.38163   8.76457 
 C                     8.72799  -9.41759   4.4894 
 C                     6.28917  -8.0533   -2.13073 
 C                     9.84321  -11.10908  -4.93962 
 C                     15.98794  -5.92775  -6.45563 
 C                     17.70375  -8.73631  -2.99258 
 C                     19.87168  -11.62783   3.3497 
 C                     15.35453  -14.60202   4.33208 
 H                     11.04328  -10.01349   9.64122 
 H                     9.74754  -9.37029   8.58576 
 H                     11.1765  -8.35531   8.9645 
 H                     8.9447   -8.40716   4.12784 
 H                     8.12798  -9.35469   5.41234 
 H                     8.16312  -9.9612    3.71818 
 H                     5.19573  -8.15381  -2.04578 
 H                     6.55223  -7.85637  -3.17535 
 H                     6.62538  -7.2111   -1.50437 
 H                     10.78596  -10.61451  -4.69049 
 H                     9.28322  -10.48038  -5.65185 
 H                     10.04119  -12.08925  -5.40186 
 H                     17.01202  -6.30986  -6.38985 
 H                     15.961   -4.88952  -6.08708 
 H                     15.66031  -5.94685  -7.50752 
 H                     17.77031  -8.03088  -2.15807 
 H                     18.36406  -8.39979  -3.80907 
 H                     18.02227  -9.73044  -2.6468 
 H                     19.58032  -11.94552   4.35645 
 H                     19.81618  -10.52907   3.28337 
 H                     20.90635  -11.95099   3.15387 
 H                     14.60562  -13.81141   4.4301 
 H                     14.85962  -15.57906   4.21281 
 H                     15.97763  -14.62137   5.242 
 C                     16.5727  -11.27987   4.86237 
 C                     17.80465  -13.47869  -3.28351 
 C                     12.38038  -10.54951  -7.47928 
 C                     9.69832  -7.83326  -3.51301 
 C                     7.3842   -13.55995   2.36244 
 C                     12.87215  -14.71576   7.04285 
 C                     4.27566  -13.61503  -1.1266 
 C                     20.46604  -16.16388  -0.49089 
 H                     17.08308  -11.9013   5.6173 
 H                     16.99857  -10.26393   4.88345 
 H                     16.71671  -11.72646   3.87452 
 H                     9.36504  -8.66351  -2.88392 
 H                     9.08198  -7.80322  -4.42704 
 H                     9.58728  -6.8801   -2.97173 
 H                     4.06328  -13.71952  -0.05726 
 H                     4.28112  -14.61171  -1.59708 
 H                     3.48987  -12.99915  -1.59279 
 H                     7.83248  -13.05798   3.23259 
 H                     7.85285  -14.54151   2.2372 
 H                     6.3013   -13.68903   2.52492 
 H                     13.9498  -14.83495   7.19702 
 H                     12.36545  -14.69962   8.02044 
 H                     12.49207  -15.56502   6.45193 
 H                     11.32917  -10.25779  -7.57405 
 H                     12.45125  -11.64856  -7.43598 
 H                     12.93806  -10.18479  -8.35617 
 H                     17.09021  -14.21535  -3.66502 
 H                     18.8275  -13.78111  -3.56319 
 H                     17.57477  -12.49754  -3.72474 
 H                     20.75979  -15.74645  -1.4599 
 H                     21.3267  -16.12541   0.19597 
 H                     20.15595  -17.21305  -0.62408 
 
 NAtoms=    193 NQM=    193 NQMF=      0 NMic=      0 NMicF=      0 NTot=    193.
                    Isotopes and Nuclear Properties:
 (Nuclear quadrupole moments (NQMom) in fm**2, nuclear magnetic moments (NMagM)
  in nuclear magnetons)

  Atom         1           2           3           4           5           6           7           8           9          10
 IAtWgt=          12          12          12          12          12          12          12          12          12          12
 AtmWgt=  12.0000000  12.0000000  12.0000000  12.0000000  12.0000000  12.0000000  12.0000000  12.0000000  12.0000000  12.0000000
 NucSpn=           0           0           0           0           0           0           0           0           0           0
 AtZEff=   0.0000000   0.0000000   0.0000000   0.0000000   0.0000000   0.0000000   0.0000000   0.0000000   0.0000000   0.0000000
 NQMom=    0.0000000   0.0000000   0.0000000   0.0000000   0.0000000   0.0000000   0.0000000   0.0000000   0.0000000   0.0000000
 NMagM=    0.0000000   0.0000000   0.0000000   0.0000000   0.0000000   0.0000000   0.0000000   0.0000000   0.0000000   0.0000000

  Atom        11          12          13          14          15          16          17          18          19          20
 IAtWgt=          12          12          12          12          12          12          12          12          12          12
 AtmWgt=  12.0000000  12.0000000  12.0000000  12.0000000  12.0000000  12.0000000  12.0000000  12.0000000  12.0000000  12.0000000
 NucSpn=           0           0           0           0           0           0           0           0           0           0
 AtZEff=   0.0000000   0.0000000   0.0000000   0.0000000   0.0000000   0.0000000   0.0000000   0.0000000   0.0000000   0.0000000
 NQMom=    0.0000000   0.0000000   0.0000000   0.0000000   0.0000000   0.0000000   0.0000000   0.0000000   0.0000000   0.0000000
 NMagM=    0.0000000   0.0000000   0.0000000   0.0000000   0.0000000   0.0000000   0.0000000   0.0000000   0.0000000   0.0000000

  Atom        21          22          23          24          25          26          27          28          29          30
 IAtWgt=          12          12          12          12          12          14          14          14          14          12
 AtmWgt=  12.0000000  12.0000000  12.0000000  12.0000000  12.0000000  14.0030740  14.0030740  14.0030740  14.0030740  12.0000000
 NucSpn=           0           0           0           0           0           2           2           2           2           0
 AtZEff=   0.0000000   0.0000000   0.0000000   0.0000000   0.0000000   0.0000000   0.0000000   0.0000000   0.0000000   0.0000000
 NQMom=    0.0000000   0.0000000   0.0000000   0.0000000   0.0000000   2.0440000   2.0440000   2.0440000   2.0440000   0.0000000
 NMagM=    0.0000000   0.0000000   0.0000000   0.0000000   0.0000000   0.4037610   0.4037610   0.4037610   0.4037610   0.0000000

  Atom        31          32          33          34          35          36          37          38          39          40
 IAtWgt=          12          12          12          12          12          12          12          12          12          12
 AtmWgt=  12.0000000  12.0000000  12.0000000  12.0000000  12.0000000  12.0000000  12.0000000  12.0000000  12.0000000  12.0000000
 NucSpn=           0           0           0           0           0           0           0           0           0           0
 AtZEff=   0.0000000   0.0000000   0.0000000   0.0000000   0.0000000   0.0000000   0.0000000   0.0000000   0.0000000   0.0000000
 NQMom=    0.0000000   0.0000000   0.0000000   0.0000000   0.0000000   0.0000000   0.0000000   0.0000000   0.0000000   0.0000000
 NMagM=    0.0000000   0.0000000   0.0000000   0.0000000   0.0000000   0.0000000   0.0000000   0.0000000   0.0000000   0.0000000

  Atom        41          42          43          44          45          46          47          48          49          50
 IAtWgt=          12          12          12          12          12          12          12          12          12          12
 AtmWgt=  12.0000000  12.0000000  12.0000000  12.0000000  12.0000000  12.0000000  12.0000000  12.0000000  12.0000000  12.0000000
 NucSpn=           0           0           0           0           0           0           0           0           0           0
 AtZEff=   0.0000000   0.0000000   0.0000000   0.0000000   0.0000000   0.0000000   0.0000000   0.0000000   0.0000000   0.0000000
 NQMom=    0.0000000   0.0000000   0.0000000   0.0000000   0.0000000   0.0000000   0.0000000   0.0000000   0.0000000   0.0000000
 NMagM=    0.0000000   0.0000000   0.0000000   0.0000000   0.0000000   0.0000000   0.0000000   0.0000000   0.0000000   0.0000000

  Atom        51          52          53          54          55          56          57          58          59          60
 IAtWgt=          12          12          12          12          12          12          12          12          12          12
 AtmWgt=  12.0000000  12.0000000  12.0000000  12.0000000  12.0000000  12.0000000  12.0000000  12.0000000  12.0000000  12.0000000
 NucSpn=           0           0           0           0           0           0           0           0           0           0
 AtZEff=   0.0000000   0.0000000   0.0000000   0.0000000   0.0000000   0.0000000   0.0000000   0.0000000   0.0000000   0.0000000
 NQMom=    0.0000000   0.0000000   0.0000000   0.0000000   0.0000000   0.0000000   0.0000000   0.0000000   0.0000000   0.0000000
 NMagM=    0.0000000   0.0000000   0.0000000   0.0000000   0.0000000   0.0000000   0.0000000   0.0000000   0.0000000   0.0000000

  Atom        61          62          63          64          65          66          67          68          69          70
 IAtWgt=          12          12          12          12          12          12          12          12          12          12
 AtmWgt=  12.0000000  12.0000000  12.0000000  12.0000000  12.0000000  12.0000000  12.0000000  12.0000000  12.0000000  12.0000000
 NucSpn=           0           0           0           0           0           0           0           0           0           0
 AtZEff=   0.0000000   0.0000000   0.0000000   0.0000000   0.0000000   0.0000000   0.0000000   0.0000000   0.0000000   0.0000000
 NQMom=    0.0000000   0.0000000   0.0000000   0.0000000   0.0000000   0.0000000   0.0000000   0.0000000   0.0000000   0.0000000
 NMagM=    0.0000000   0.0000000   0.0000000   0.0000000   0.0000000   0.0000000   0.0000000   0.0000000   0.0000000   0.0000000

  Atom        71          72          73          74          75          76          77          78          79          80
 IAtWgt=          12          12          12          12          12          12          12           1           1           1
 AtmWgt=  12.0000000  12.0000000  12.0000000  12.0000000  12.0000000  12.0000000  12.0000000   1.0078250   1.0078250   1.0078250
 NucSpn=           0           0           0           0           0           0           0           1           1           1
 AtZEff=   0.0000000   0.0000000   0.0000000   0.0000000   0.0000000   0.0000000   0.0000000   0.0000000   0.0000000   0.0000000
 NQMom=    0.0000000   0.0000000   0.0000000   0.0000000   0.0000000   0.0000000   0.0000000   0.0000000   0.0000000   0.0000000
 NMagM=    0.0000000   0.0000000   0.0000000   0.0000000   0.0000000   0.0000000   0.0000000   2.7928460   2.7928460   2.7928460

  Atom        81          82          83          84          85          86          87          88          89          90
 IAtWgt=           1           1           1           1           1           1           1           1           1           1
 AtmWgt=   1.0078250   1.0078250   1.0078250   1.0078250   1.0078250   1.0078250   1.0078250   1.0078250   1.0078250   1.0078250
 NucSpn=           1           1           1           1           1           1           1           1           1           1
 AtZEff=   0.0000000   0.0000000   0.0000000   0.0000000   0.0000000   0.0000000   0.0000000   0.0000000   0.0000000   0.0000000
 NQMom=    0.0000000   0.0000000   0.0000000   0.0000000   0.0000000   0.0000000   0.0000000   0.0000000   0.0000000   0.0000000
 NMagM=    2.7928460   2.7928460   2.7928460   2.7928460   2.7928460   2.7928460   2.7928460   2.7928460   2.7928460   2.7928460

  Atom        91          92          93          94          95          96          97          98          99         100
 IAtWgt=          16          16           1           1          16           1          16          16           1           1
 AtmWgt=  15.9949146  15.9949146   1.0078250   1.0078250  15.9949146   1.0078250  15.9949146  15.9949146   1.0078250   1.0078250
 NucSpn=           0           0           1           1           0           1           0           0           1           1
 AtZEff=   0.0000000   0.0000000   0.0000000   0.0000000   0.0000000   0.0000000   0.0000000   0.0000000   0.0000000   0.0000000
 NQMom=    0.0000000   0.0000000   0.0000000   0.0000000   0.0000000   0.0000000   0.0000000   0.0000000   0.0000000   0.0000000
 NMagM=    0.0000000   0.0000000   2.7928460   2.7928460   0.0000000   2.7928460   0.0000000   0.0000000   2.7928460   2.7928460

  Atom       101         102         103         104         105         106         107         108         109         110
 IAtWgt=          16           1          16           1          16           1          16           1           1          16
 AtmWgt=  15.9949146   1.0078250  15.9949146   1.0078250  15.9949146   1.0078250  15.9949146   1.0078250   1.0078250  15.9949146
 NucSpn=           0           1           0           1           0           1           0           1           1           0
 AtZEff=   0.0000000   0.0000000   0.0000000   0.0000000   0.0000000   0.0000000   0.0000000   0.0000000   0.0000000   0.0000000
 NQMom=    0.0000000   0.0000000   0.0000000   0.0000000   0.0000000   0.0000000   0.0000000   0.0000000   0.0000000   0.0000000
 NMagM=    0.0000000   2.7928460   0.0000000   2.7928460   0.0000000   2.7928460   0.0000000   2.7928460   2.7928460   0.0000000

  Atom       111         112         113         114         115         116         117         118         119         120
 IAtWgt=          16           1           1           1          16           1          16           1           1          16
 AtmWgt=  15.9949146   1.0078250   1.0078250   1.0078250  15.9949146   1.0078250  15.9949146   1.0078250   1.0078250  15.9949146
 NucSpn=           0           1           1           1           0           1           0           1           1           0
 AtZEff=   0.0000000   0.0000000   0.0000000   0.0000000   0.0000000   0.0000000   0.0000000   0.0000000   0.0000000   0.0000000
 NQMom=    0.0000000   0.0000000   0.0000000   0.0000000   0.0000000   0.0000000   0.0000000   0.0000000   0.0000000   0.0000000
 NMagM=    0.0000000   2.7928460   2.7928460   2.7928460   0.0000000   2.7928460   0.0000000   2.7928460   2.7928460   0.0000000

  Atom       121         122         123         124         125         126         127         128         129         130
 IAtWgt=          16           1           1           1          16           1           1           1           1          12
 AtmWgt=  15.9949146   1.0078250   1.0078250   1.0078250  15.9949146   1.0078250   1.0078250   1.0078250   1.0078250  12.0000000
 NucSpn=           0           1           1           1           0           1           1           1           1           0
 AtZEff=   0.0000000   0.0000000   0.0000000   0.0000000   0.0000000   0.0000000   0.0000000   0.0000000   0.0000000   0.0000000
 NQMom=    0.0000000   0.0000000   0.0000000   0.0000000   0.0000000   0.0000000   0.0000000   0.0000000   0.0000000   0.0000000
 NMagM=    0.0000000   2.7928460   2.7928460   2.7928460   0.0000000   2.7928460   2.7928460   2.7928460   2.7928460   0.0000000

  Atom       131         132         133         134         135         136         137         138         139         140
 IAtWgt=          12          12          12          12          12          12          12           1           1           1
 AtmWgt=  12.0000000  12.0000000  12.0000000  12.0000000  12.0000000  12.0000000  12.0000000   1.0078250   1.0078250   1.0078250
 NucSpn=           0           0           0           0           0           0           0           1           1           1
 AtZEff=   0.0000000   0.0000000   0.0000000   0.0000000   0.0000000   0.0000000   0.0000000   0.0000000   0.0000000   0.0000000
 NQMom=    0.0000000   0.0000000   0.0000000   0.0000000   0.0000000   0.0000000   0.0000000   0.0000000   0.0000000   0.0000000
 NMagM=    0.0000000   0.0000000   0.0000000   0.0000000   0.0000000   0.0000000   0.0000000   2.7928460   2.7928460   2.7928460

  Atom       141         142         143         144         145         146         147         148         149         150
 IAtWgt=           1           1           1           1           1           1           1           1           1           1
 AtmWgt=   1.0078250   1.0078250   1.0078250   1.0078250   1.0078250   1.0078250   1.0078250   1.0078250   1.0078250   1.0078250
 NucSpn=           1           1           1           1           1           1           1           1           1           1
 AtZEff=   0.0000000   0.0000000   0.0000000   0.0000000   0.0000000   0.0000000   0.0000000   0.0000000   0.0000000   0.0000000
 NQMom=    0.0000000   0.0000000   0.0000000   0.0000000   0.0000000   0.0000000   0.0000000   0.0000000   0.0000000   0.0000000
 NMagM=    2.7928460   2.7928460   2.7928460   2.7928460   2.7928460   2.7928460   2.7928460   2.7928460   2.7928460   2.7928460

  Atom       151         152         153         154         155         156         157         158         159         160
 IAtWgt=           1           1           1           1           1           1           1           1           1           1
 AtmWgt=   1.0078250   1.0078250   1.0078250   1.0078250   1.0078250   1.0078250   1.0078250   1.0078250   1.0078250   1.0078250
 NucSpn=           1           1           1           1           1           1           1           1           1           1
 AtZEff=   0.0000000   0.0000000   0.0000000   0.0000000   0.0000000   0.0000000   0.0000000   0.0000000   0.0000000   0.0000000
 NQMom=    0.0000000   0.0000000   0.0000000   0.0000000   0.0000000   0.0000000   0.0000000   0.0000000   0.0000000   0.0000000
 NMagM=    2.7928460   2.7928460   2.7928460   2.7928460   2.7928460   2.7928460   2.7928460   2.7928460   2.7928460   2.7928460

  Atom       161         162         163         164         165         166         167         168         169         170
 IAtWgt=           1          12          12          12          12          12          12          12          12           1
 AtmWgt=   1.0078250  12.0000000  12.0000000  12.0000000  12.0000000  12.0000000  12.0000000  12.0000000  12.0000000   1.0078250
 NucSpn=           1           0           0           0           0           0           0           0           0           1
 AtZEff=   0.0000000   0.0000000   0.0000000   0.0000000   0.0000000   0.0000000   0.0000000   0.0000000   0.0000000   0.0000000
 NQMom=    0.0000000   0.0000000   0.0000000   0.0000000   0.0000000   0.0000000   0.0000000   0.0000000   0.0000000   0.0000000
 NMagM=    2.7928460   0.0000000   0.0000000   0.0000000   0.0000000   0.0000000   0.0000000   0.0000000   0.0000000   2.7928460

  Atom       171         172         173         174         175         176         177         178         179         180
 IAtWgt=           1           1           1           1           1           1           1           1           1           1
 AtmWgt=   1.0078250   1.0078250   1.0078250   1.0078250   1.0078250   1.0078250   1.0078250   1.0078250   1.0078250   1.0078250
 NucSpn=           1           1           1           1           1           1           1           1           1           1
 AtZEff=   0.0000000   0.0000000   0.0000000   0.0000000   0.0000000   0.0000000   0.0000000   0.0000000   0.0000000   0.0000000
 NQMom=    0.0000000   0.0000000   0.0000000   0.0000000   0.0000000   0.0000000   0.0000000   0.0000000   0.0000000   0.0000000
 NMagM=    2.7928460   2.7928460   2.7928460   2.7928460   2.7928460   2.7928460   2.7928460   2.7928460   2.7928460   2.7928460

  Atom       181         182         183         184         185         186         187         188         189         190
 IAtWgt=           1           1           1           1           1           1           1           1           1           1
 AtmWgt=   1.0078250   1.0078250   1.0078250   1.0078250   1.0078250   1.0078250   1.0078250   1.0078250   1.0078250   1.0078250
 NucSpn=           1           1           1           1           1           1           1           1           1           1
 AtZEff=   0.0000000   0.0000000   0.0000000   0.0000000   0.0000000   0.0000000   0.0000000   0.0000000   0.0000000   0.0000000
 NQMom=    0.0000000   0.0000000   0.0000000   0.0000000   0.0000000   0.0000000   0.0000000   0.0000000   0.0000000   0.0000000
 NMagM=    2.7928460   2.7928460   2.7928460   2.7928460   2.7928460   2.7928460   2.7928460   2.7928460   2.7928460   2.7928460

  Atom       191         192         193
 IAtWgt=           1           1           1
 AtmWgt=   1.0078250   1.0078250   1.0078250
 NucSpn=           1           1           1
 AtZEff=   0.0000000   0.0000000   0.0000000
 NQMom=    0.0000000   0.0000000   0.0000000
 NMagM=    2.7928460   2.7928460   2.7928460
 Leave Link  101 at Wed Aug  6 20:29:52 2014, MaxMem= 2147483648 cpu:       5.0
 (Enter /opt/g09/l103.exe)

 GradGradGradGradGradGradGradGradGradGradGradGradGradGradGradGradGradGrad
 Berny optimization.
 Initialization pass.
                           ----------------------------
                           !    Initial Parameters    !
                           ! (Angstroms and Degrees)  !
 --------------------------                            --------------------------
 ! Name  Definition              Value          Derivative Info.                !
 --------------------------------------------------------------------------------
 ! R1    R(1,2)                  1.5431         estimate D2E/DX2                !
 ! R2    R(1,5)                  1.5436         estimate D2E/DX2                !
 ! R3    R(1,6)                  1.5433         estimate D2E/DX2                !
 ! R4    R(1,9)                  1.543          estimate D2E/DX2                !
 ! R5    R(2,3)                  1.4104         estimate D2E/DX2                !
 ! R6    R(2,18)                 1.3915         estimate D2E/DX2                !
 ! R7    R(3,4)                  1.4539         estimate D2E/DX2                !
 ! R8    R(3,21)                 1.3973         estimate D2E/DX2                !
 ! R9    R(4,5)                  1.4103         estimate D2E/DX2                !
 ! R10   R(4,14)                 1.3974         estimate D2E/DX2                !
 ! R11   R(5,17)                 1.3916         estimate D2E/DX2                !
 ! R12   R(6,7)                  1.4102         estimate D2E/DX2                !
 ! R13   R(6,10)                 1.3911         estimate D2E/DX2                !
 ! R14   R(7,8)                  1.4538         estimate D2E/DX2                !
 ! R15   R(7,13)                 1.3974         estimate D2E/DX2                !
 ! R16   R(8,9)                  1.4103         estimate D2E/DX2                !
 ! R17   R(8,22)                 1.3974         estimate D2E/DX2                !
 ! R18   R(9,25)                 1.3915         estimate D2E/DX2                !
 ! R19   R(10,11)                1.4093         estimate D2E/DX2                !
 ! R20   R(10,89)                1.0907         estimate D2E/DX2                !
 ! R21   R(11,12)                1.4047         estimate D2E/DX2                !
 ! R22   R(11,26)                1.4233         estimate D2E/DX2                !
 ! R23   R(12,13)                1.3893         estimate D2E/DX2                !
 ! R24   R(12,87)                1.0896         estimate D2E/DX2                !
 ! R25   R(13,86)                1.0911         estimate D2E/DX2                !
 ! R26   R(14,15)                1.3892         estimate D2E/DX2                !
 ! R27   R(14,82)                1.091          estimate D2E/DX2                !
 ! R28   R(15,16)                1.4044         estimate D2E/DX2                !
 ! R29   R(15,83)                1.0895         estimate D2E/DX2                !
 ! R30   R(16,17)                1.4096         estimate D2E/DX2                !
 ! R31   R(16,27)                1.4241         estimate D2E/DX2                !
 ! R32   R(17,88)                1.0907         estimate D2E/DX2                !
 ! R33   R(18,19)                1.4097         estimate D2E/DX2                !
 ! R34   R(18,79)                1.0908         estimate D2E/DX2                !
 ! R35   R(19,20)                1.4047         estimate D2E/DX2                !
 ! R36   R(19,28)                1.423          estimate D2E/DX2                !
 ! R37   R(20,21)                1.3892         estimate D2E/DX2                !
 ! R38   R(20,80)                1.0896         estimate D2E/DX2                !
 ! R39   R(21,81)                1.0911         estimate D2E/DX2                !
 ! R40   R(22,23)                1.3891         estimate D2E/DX2                !
 ! R41   R(22,84)                1.0911         estimate D2E/DX2                !
 ! R42   R(23,24)                1.4046         estimate D2E/DX2                !
 ! R43   R(23,85)                1.0895         estimate D2E/DX2                !
 ! R44   R(24,25)                1.4095         estimate D2E/DX2                !
 ! R45   R(24,29)                1.4232         estimate D2E/DX2                !
 ! R46   R(25,78)                1.0907         estimate D2E/DX2                !
 ! R47   R(26,34)                1.4159         estimate D2E/DX2                !
 ! R48   R(26,35)                1.4173         estimate D2E/DX2                !
 ! R49   R(27,36)                1.4175         estimate D2E/DX2                !
 ! R50   R(27,37)                1.4159         estimate D2E/DX2                !
 ! R51   R(28,31)                1.4159         estimate D2E/DX2                !
 ! R52   R(28,33)                1.4177         estimate D2E/DX2                !
 ! R53   R(29,30)                1.4175         estimate D2E/DX2                !
 ! R54   R(29,32)                1.4159         estimate D2E/DX2                !
 ! R55   R(30,73)                1.4182         estimate D2E/DX2                !
 ! R56   R(30,77)                1.4163         estimate D2E/DX2                !
 ! R57   R(31,58)                1.4169         estimate D2E/DX2                !
 ! R58   R(31,62)                1.4124         estimate D2E/DX2                !
 ! R59   R(32,68)                1.4169         estimate D2E/DX2                !
 ! R60   R(32,72)                1.4122         estimate D2E/DX2                !
 ! R61   R(33,63)                1.4183         estimate D2E/DX2                !
 ! R62   R(33,67)                1.4162         estimate D2E/DX2                !
 ! R63   R(34,43)                1.4121         estimate D2E/DX2                !
 ! R64   R(34,47)                1.417          estimate D2E/DX2                !
 ! R65   R(35,48)                1.4164         estimate D2E/DX2                !
 ! R66   R(35,52)                1.4184         estimate D2E/DX2                !
 ! R67   R(36,38)                1.4165         estimate D2E/DX2                !
 ! R68   R(36,42)                1.4184         estimate D2E/DX2                !
 ! R69   R(37,53)                1.4121         estimate D2E/DX2                !
 ! R70   R(37,57)                1.417          estimate D2E/DX2                !
 ! R71   R(38,39)                1.402          estimate D2E/DX2                !
 ! R72   R(38,95)                1.3665         estimate D2E/DX2                !
 ! R73   R(39,40)                1.3924         estimate D2E/DX2                !
 ! R74   R(39,94)                1.0871         estimate D2E/DX2                !
 ! R75   R(40,41)                1.3932         estimate D2E/DX2                !
 ! R76   R(40,126)               1.09           estimate D2E/DX2                !
 ! R77   R(41,42)                1.4007         estimate D2E/DX2                !
 ! R78   R(41,90)                1.0869         estimate D2E/DX2                !
 ! R79   R(42,91)                1.3605         estimate D2E/DX2                !
 ! R80   R(43,44)                1.4025         estimate D2E/DX2                !
 ! R81   R(43,92)                1.3676         estimate D2E/DX2                !
 ! R82   R(44,45)                1.3927         estimate D2E/DX2                !
 ! R83   R(44,93)                1.087          estimate D2E/DX2                !
 ! R84   R(45,46)                1.3947         estimate D2E/DX2                !
 ! R85   R(45,127)               1.0901         estimate D2E/DX2                !
 ! R86   R(46,47)                1.4006         estimate D2E/DX2                !
 ! R87   R(46,96)                1.0875         estimate D2E/DX2                !
 ! R88   R(47,97)                1.3579         estimate D2E/DX2                !
 ! R89   R(48,49)                1.402          estimate D2E/DX2                !
 ! R90   R(48,125)               1.3663         estimate D2E/DX2                !
 ! R91   R(49,50)                1.3925         estimate D2E/DX2                !
 ! R92   R(49,124)               1.0869         estimate D2E/DX2                !
 ! R93   R(50,51)                1.3931         estimate D2E/DX2                !
 ! R94   R(50,123)               1.09           estimate D2E/DX2                !
 ! R95   R(51,52)                1.4007         estimate D2E/DX2                !
 ! R96   R(51,122)               1.087          estimate D2E/DX2                !
 ! R97   R(52,121)               1.3611         estimate D2E/DX2                !
 ! R98   R(53,54)                1.4027         estimate D2E/DX2                !
 ! R99   R(53,117)               1.3673         estimate D2E/DX2                !
 ! R100  R(54,55)                1.3929         estimate D2E/DX2                !
 ! R101  R(54,116)               1.0868         estimate D2E/DX2                !
 ! R102  R(55,56)                1.3946         estimate D2E/DX2                !
 ! R103  R(55,118)               1.0902         estimate D2E/DX2                !
 ! R104  R(56,57)                1.4007         estimate D2E/DX2                !
 ! R105  R(56,119)               1.0876         estimate D2E/DX2                !
 ! R106  R(57,120)               1.358          estimate D2E/DX2                !
 ! R107  R(58,59)                1.4006         estimate D2E/DX2                !
 ! R108  R(58,110)               1.3576         estimate D2E/DX2                !
 ! R109  R(59,60)                1.3948         estimate D2E/DX2                !
 ! R110  R(59,109)               1.0876         estimate D2E/DX2                !
 ! R111  R(60,61)                1.3929         estimate D2E/DX2                !
 ! R112  R(60,108)               1.0901         estimate D2E/DX2                !
 ! R113  R(61,62)                1.4024         estimate D2E/DX2                !
 ! R114  R(61,106)               1.087          estimate D2E/DX2                !
 ! R115  R(62,107)               1.3673         estimate D2E/DX2                !
 ! R116  R(63,64)                1.4008         estimate D2E/DX2                !
 ! R117  R(63,103)               1.3604         estimate D2E/DX2                !
 ! R118  R(64,65)                1.3932         estimate D2E/DX2                !
 ! R119  R(64,102)               1.0868         estimate D2E/DX2                !
 ! R120  R(65,66)                1.3924         estimate D2E/DX2                !
 ! R121  R(65,128)               1.0899         estimate D2E/DX2                !
 ! R122  R(66,67)                1.402          estimate D2E/DX2                !
 ! R123  R(66,104)               1.0871         estimate D2E/DX2                !
 ! R124  R(67,105)               1.3664         estimate D2E/DX2                !
 ! R125  R(68,69)                1.4004         estimate D2E/DX2                !
 ! R126  R(68,101)               1.3575         estimate D2E/DX2                !
 ! R127  R(69,70)                1.3947         estimate D2E/DX2                !
 ! R128  R(69,100)               1.0876         estimate D2E/DX2                !
 ! R129  R(70,71)                1.3929         estimate D2E/DX2                !
 ! R130  R(70,129)               1.0904         estimate D2E/DX2                !
 ! R131  R(71,72)                1.4025         estimate D2E/DX2                !
 ! R132  R(71,99)                1.0871         estimate D2E/DX2                !
 ! R133  R(72,98)                1.3676         estimate D2E/DX2                !
 ! R134  R(73,74)                1.4006         estimate D2E/DX2                !
 ! R135  R(73,111)               1.3606         estimate D2E/DX2                !
 ! R136  R(74,75)                1.3933         estimate D2E/DX2                !
 ! R137  R(74,112)               1.087          estimate D2E/DX2                !
 ! R138  R(75,76)                1.3922         estimate D2E/DX2                !
 ! R139  R(75,113)               1.0898         estimate D2E/DX2                !
 ! R140  R(76,77)                1.4021         estimate D2E/DX2                !
 ! R141  R(76,114)               1.087          estimate D2E/DX2                !
 ! R142  R(77,115)               1.3665         estimate D2E/DX2                !
 ! R143  R(91,137)               1.4235         estimate D2E/DX2                !
 ! R144  R(92,164)               1.4218         estimate D2E/DX2                !
 ! R145  R(95,169)               1.4201         estimate D2E/DX2                !
 ! R146  R(97,135)               1.4223         estimate D2E/DX2                !
 ! R147  R(98,167)               1.4218         estimate D2E/DX2                !
 ! R148  R(101,131)              1.4227         estimate D2E/DX2                !
 ! R149  R(103,133)              1.4236         estimate D2E/DX2                !
 ! R150  R(105,168)              1.42           estimate D2E/DX2                !
 ! R151  R(107,132)              1.4218         estimate D2E/DX2                !
 ! R152  R(110,166)              1.4228         estimate D2E/DX2                !
 ! R153  R(111,162)              1.4232         estimate D2E/DX2                !
 ! R154  R(115,130)              1.4203         estimate D2E/DX2                !
 ! R155  R(117,136)              1.4217         estimate D2E/DX2                !
 ! R156  R(120,163)              1.4224         estimate D2E/DX2                !
 ! R157  R(121,165)              1.4236         estimate D2E/DX2                !
 ! R158  R(125,134)              1.4202         estimate D2E/DX2                !
 ! R159  R(130,138)              1.1019         estimate D2E/DX2                !
 ! R160  R(130,139)              1.0953         estimate D2E/DX2                !
 ! R161  R(130,140)              1.1021         estimate D2E/DX2                !
 ! R162  R(131,141)              1.0948         estimate D2E/DX2                !
 ! R163  R(131,142)              1.1026         estimate D2E/DX2                !
 ! R164  R(131,143)              1.0997         estimate D2E/DX2                !
 ! R165  R(132,144)              1.1013         estimate D2E/DX2                !
 ! R166  R(132,145)              1.0951         estimate D2E/DX2                !
 ! R167  R(132,146)              1.1021         estimate D2E/DX2                !
 ! R168  R(133,147)              1.0934         estimate D2E/DX2                !
 ! R169  R(133,148)              1.1028         estimate D2E/DX2                !
 ! R170  R(133,149)              1.1016         estimate D2E/DX2                !
 ! R171  R(134,150)              1.095          estimate D2E/DX2                !
 ! R172  R(134,151)              1.102          estimate D2E/DX2                !
 ! R173  R(134,152)              1.1019         estimate D2E/DX2                !
 ! R174  R(135,153)              1.0947         estimate D2E/DX2                !
 ! R175  R(135,154)              1.1027         estimate D2E/DX2                !
 ! R176  R(135,155)              1.0997         estimate D2E/DX2                !
 ! R177  R(136,156)              1.0952         estimate D2E/DX2                !
 ! R178  R(136,157)              1.1022         estimate D2E/DX2                !
 ! R179  R(136,158)              1.1015         estimate D2E/DX2                !
 ! R180  R(137,159)              1.0934         estimate D2E/DX2                !
 ! R181  R(137,160)              1.1017         estimate D2E/DX2                !
 ! R182  R(137,161)              1.103          estimate D2E/DX2                !
 ! R183  R(162,170)              1.103          estimate D2E/DX2                !
 ! R184  R(162,171)              1.1018         estimate D2E/DX2                !
 ! R185  R(162,172)              1.0936         estimate D2E/DX2                !
 ! R186  R(163,188)              1.0948         estimate D2E/DX2                !
 ! R187  R(163,189)              1.1027         estimate D2E/DX2                !
 ! R188  R(163,190)              1.1001         estimate D2E/DX2                !
 ! R189  R(164,185)              1.095          estimate D2E/DX2                !
 ! R190  R(164,186)              1.1022         estimate D2E/DX2                !
 ! R191  R(164,187)              1.1013         estimate D2E/DX2                !
 ! R192  R(165,173)              1.0937         estimate D2E/DX2                !
 ! R193  R(165,174)              1.1028         estimate D2E/DX2                !
 ! R194  R(165,175)              1.1017         estimate D2E/DX2                !
 ! R195  R(166,179)              1.1            estimate D2E/DX2                !
 ! R196  R(166,180)              1.0949         estimate D2E/DX2                !
 ! R197  R(166,181)              1.1026         estimate D2E/DX2                !
 ! R198  R(167,182)              1.0951         estimate D2E/DX2                !
 ! R199  R(167,183)              1.1012         estimate D2E/DX2                !
 ! R200  R(167,184)              1.1022         estimate D2E/DX2                !
 ! R201  R(168,176)              1.0952         estimate D2E/DX2                !
 ! R202  R(168,177)              1.1022         estimate D2E/DX2                !
 ! R203  R(168,178)              1.1019         estimate D2E/DX2                !
 ! R204  R(169,191)              1.0952         estimate D2E/DX2                !
 ! R205  R(169,192)              1.1018         estimate D2E/DX2                !
 ! R206  R(169,193)              1.1021         estimate D2E/DX2                !
 ! A1    A(2,1,5)              101.3514         estimate D2E/DX2                !
 ! A2    A(2,1,6)              112.0575         estimate D2E/DX2                !
 ! A3    A(2,1,9)              115.5023         estimate D2E/DX2                !
 ! A4    A(5,1,6)              114.982          estimate D2E/DX2                !
 ! A5    A(5,1,9)              112.227          estimate D2E/DX2                !
 ! A6    A(6,1,9)              101.3293         estimate D2E/DX2                !
 ! A7    A(1,2,3)              109.9467         estimate D2E/DX2                !
 ! A8    A(1,2,18)             129.5309         estimate D2E/DX2                !
 ! A9    A(3,2,18)             120.43           estimate D2E/DX2                !
 ! A10   A(2,3,4)              109.2931         estimate D2E/DX2                !
 ! A11   A(2,3,21)             120.2845         estimate D2E/DX2                !
 ! A12   A(4,3,21)             130.4066         estimate D2E/DX2                !
 ! A13   A(3,4,5)              109.2834         estimate D2E/DX2                !
 ! A14   A(3,4,14)             130.4049         estimate D2E/DX2                !
 ! A15   A(5,4,14)             120.2869         estimate D2E/DX2                !
 ! A16   A(1,5,4)              109.9578         estimate D2E/DX2                !
 ! A17   A(1,5,17)             129.5082         estimate D2E/DX2                !
 ! A18   A(4,5,17)             120.4487         estimate D2E/DX2                !
 ! A19   A(1,6,7)              109.9876         estimate D2E/DX2                !
 ! A20   A(1,6,10)             129.4456         estimate D2E/DX2                !
 ! A21   A(7,6,10)             120.4807         estimate D2E/DX2                !
 ! A22   A(6,7,8)              109.2675         estimate D2E/DX2                !
 ! A23   A(6,7,13)             120.2566         estimate D2E/DX2                !
 ! A24   A(8,7,13)             130.4522         estimate D2E/DX2                !
 ! A25   A(7,8,9)              109.2952         estimate D2E/DX2                !
 ! A26   A(7,8,22)             130.436          estimate D2E/DX2                !
 ! A27   A(9,8,22)             120.2542         estimate D2E/DX2                !
 ! A28   A(1,9,8)              109.9626         estimate D2E/DX2                !
 ! A29   A(1,9,25)             129.498          estimate D2E/DX2                !
 ! A30   A(8,9,25)             120.4571         estimate D2E/DX2                !
 ! A31   A(6,10,11)            119.1665         estimate D2E/DX2                !
 ! A32   A(6,10,89)            121.234          estimate D2E/DX2                !
 ! A33   A(11,10,89)           119.5562         estimate D2E/DX2                !
 ! A34   A(10,11,12)           119.9225         estimate D2E/DX2                !
 ! A35   A(10,11,26)           121.0452         estimate D2E/DX2                !
 ! A36   A(12,11,26)           119.0223         estimate D2E/DX2                !
 ! A37   A(11,12,13)           120.8468         estimate D2E/DX2                !
 ! A38   A(11,12,87)           118.7256         estimate D2E/DX2                !
 ! A39   A(13,12,87)           120.4185         estimate D2E/DX2                !
 ! A40   A(7,13,12)            119.305          estimate D2E/DX2                !
 ! A41   A(7,13,86)            120.704          estimate D2E/DX2                !
 ! A42   A(12,13,86)           119.9909         estimate D2E/DX2                !
 ! A43   A(4,14,15)            119.2849         estimate D2E/DX2                !
 ! A44   A(4,14,82)            120.708          estimate D2E/DX2                !
 ! A45   A(15,14,82)           120.007          estimate D2E/DX2                !
 ! A46   A(14,15,16)           120.8719         estimate D2E/DX2                !
 ! A47   A(14,15,83)           120.4129         estimate D2E/DX2                !
 ! A48   A(16,15,83)           118.7079         estimate D2E/DX2                !
 ! A49   A(15,16,17)           119.9232         estimate D2E/DX2                !
 ! A50   A(15,16,27)           118.89           estimate D2E/DX2                !
 ! A51   A(17,16,27)           121.1704         estimate D2E/DX2                !
 ! A52   A(5,17,16)            119.1589         estimate D2E/DX2                !
 ! A53   A(5,17,88)            121.2663         estimate D2E/DX2                !
 ! A54   A(16,17,88)           119.5221         estimate D2E/DX2                !
 ! A55   A(2,18,19)            119.1861         estimate D2E/DX2                !
 ! A56   A(2,18,79)            121.2614         estimate D2E/DX2                !
 ! A57   A(19,18,79)           119.51           estimate D2E/DX2                !
 ! A58   A(18,19,20)           119.9115         estimate D2E/DX2                !
 ! A59   A(18,19,28)           121.1262         estimate D2E/DX2                !
 ! A60   A(20,19,28)           118.9514         estimate D2E/DX2                !
 ! A61   A(19,20,21)           120.8456         estimate D2E/DX2                !
 ! A62   A(19,20,80)           118.7612         estimate D2E/DX2                !
 ! A63   A(21,20,80)           120.3826         estimate D2E/DX2                !
 ! A64   A(3,21,20)            119.3126         estimate D2E/DX2                !
 ! A65   A(3,21,81)            120.7009         estimate D2E/DX2                !
 ! A66   A(20,21,81)           119.9862         estimate D2E/DX2                !
 ! A67   A(8,22,23)            119.3161         estimate D2E/DX2                !
 ! A68   A(8,22,84)            120.6975         estimate D2E/DX2                !
 ! A69   A(23,22,84)           119.9859         estimate D2E/DX2                !
 ! A70   A(22,23,24)           120.8599         estimate D2E/DX2                !
 ! A71   A(22,23,85)           120.3755         estimate D2E/DX2                !
 ! A72   A(24,23,85)           118.7526         estimate D2E/DX2                !
 ! A73   A(23,24,25)           119.9051         estimate D2E/DX2                !
 ! A74   A(23,24,29)           118.9845         estimate D2E/DX2                !
 ! A75   A(25,24,29)           121.1025         estimate D2E/DX2                !
 ! A76   A(9,25,24)            119.1794         estimate D2E/DX2                !
 ! A77   A(9,25,78)            121.2017         estimate D2E/DX2                !
 ! A78   A(24,25,78)           119.5824         estimate D2E/DX2                !
 ! A79   A(11,26,34)           120.0828         estimate D2E/DX2                !
 ! A80   A(11,26,35)           119.3224         estimate D2E/DX2                !
 ! A81   A(34,26,35)           119.9859         estimate D2E/DX2                !
 ! A82   A(16,27,36)           119.2065         estimate D2E/DX2                !
 ! A83   A(16,27,37)           120.293          estimate D2E/DX2                !
 ! A84   A(36,27,37)           119.8784         estimate D2E/DX2                !
 ! A85   A(19,28,31)           120.3585         estimate D2E/DX2                !
 ! A86   A(19,28,33)           119.3385         estimate D2E/DX2                !
 ! A87   A(31,28,33)           119.6567         estimate D2E/DX2                !
 ! A88   A(24,29,30)           119.3107         estimate D2E/DX2                !
 ! A89   A(24,29,32)           120.145          estimate D2E/DX2                !
 ! A90   A(30,29,32)           119.8763         estimate D2E/DX2                !
 ! A91   A(29,30,73)           120.0351         estimate D2E/DX2                !
 ! A92   A(29,30,77)           122.1623         estimate D2E/DX2                !
 ! A93   A(73,30,77)           117.8019         estimate D2E/DX2                !
 ! A94   A(28,31,58)           120.4269         estimate D2E/DX2                !
 ! A95   A(28,31,62)           121.0858         estimate D2E/DX2                !
 ! A96   A(58,31,62)           118.3291         estimate D2E/DX2                !
 ! A97   A(29,32,68)           120.3421         estimate D2E/DX2                !
 ! A98   A(29,32,72)           121.1874         estimate D2E/DX2                !
 ! A99   A(68,32,72)           118.3428         estimate D2E/DX2                !
 ! A100  A(28,33,63)           120.0554         estimate D2E/DX2                !
 ! A101  A(28,33,67)           122.1186         estimate D2E/DX2                !
 ! A102  A(63,33,67)           117.8257         estimate D2E/DX2                !
 ! A103  A(26,34,43)           121.2489         estimate D2E/DX2                !
 ! A104  A(26,34,47)           120.3276         estimate D2E/DX2                !
 ! A105  A(43,34,47)           118.3058         estimate D2E/DX2                !
 ! A106  A(26,35,48)           122.08           estimate D2E/DX2                !
 ! A107  A(26,35,52)           120.1234         estimate D2E/DX2                !
 ! A108  A(48,35,52)           117.7962         estimate D2E/DX2                !
 ! A109  A(27,36,38)           122.1629         estimate D2E/DX2                !
 ! A110  A(27,36,42)           120.0715         estimate D2E/DX2                !
 ! A111  A(38,36,42)           117.7649         estimate D2E/DX2                !
 ! A112  A(27,37,53)           121.1532         estimate D2E/DX2                !
 ! A113  A(27,37,57)           120.3937         estimate D2E/DX2                !
 ! A114  A(53,37,57)           118.3002         estimate D2E/DX2                !
 ! A115  A(36,38,39)           121.0021         estimate D2E/DX2                !
 ! A116  A(36,38,95)           115.9314         estimate D2E/DX2                !
 ! A117  A(39,38,95)           123.0584         estimate D2E/DX2                !
 ! A118  A(38,39,40)           119.6803         estimate D2E/DX2                !
 ! A119  A(38,39,94)           120.4569         estimate D2E/DX2                !
 ! A120  A(40,39,94)           119.839          estimate D2E/DX2                !
 ! A121  A(39,40,41)           120.829          estimate D2E/DX2                !
 ! A122  A(39,40,126)          119.5637         estimate D2E/DX2                !
 ! A123  A(41,40,126)          119.6071         estimate D2E/DX2                !
 ! A124  A(40,41,42)           119.6525         estimate D2E/DX2                !
 ! A125  A(40,41,90)           119.9464         estimate D2E/DX2                !
 ! A126  A(42,41,90)           120.3859         estimate D2E/DX2                !
 ! A127  A(36,42,41)           121.0248         estimate D2E/DX2                !
 ! A128  A(36,42,91)           115.512          estimate D2E/DX2                !
 ! A129  A(41,42,91)           123.4628         estimate D2E/DX2                !
 ! A130  A(34,43,44)           120.843          estimate D2E/DX2                !
 ! A131  A(34,43,92)           115.7041         estimate D2E/DX2                !
 ! A132  A(44,43,92)           123.4511         estimate D2E/DX2                !
 ! A133  A(43,44,45)           119.48           estimate D2E/DX2                !
 ! A134  A(43,44,93)           120.671          estimate D2E/DX2                !
 ! A135  A(45,44,93)           119.8459         estimate D2E/DX2                !
 ! A136  A(44,45,46)           121.1101         estimate D2E/DX2                !
 ! A137  A(44,45,127)          119.3719         estimate D2E/DX2                !
 ! A138  A(46,45,127)          119.5166         estimate D2E/DX2                !
 ! A139  A(45,46,47)           119.4702         estimate D2E/DX2                !
 ! A140  A(45,46,96)           120.1208         estimate D2E/DX2                !
 ! A141  A(47,46,96)           120.3633         estimate D2E/DX2                !
 ! A142  A(34,47,46)           120.7758         estimate D2E/DX2                !
 ! A143  A(34,47,97)           115.185          estimate D2E/DX2                !
 ! A144  A(46,47,97)           123.9928         estimate D2E/DX2                !
 ! A145  A(35,48,49)           120.9879         estimate D2E/DX2                !
 ! A146  A(35,48,125)          115.9067         estimate D2E/DX2                !
 ! A147  A(49,48,125)          123.0977         estimate D2E/DX2                !
 ! A148  A(48,49,50)           119.6677         estimate D2E/DX2                !
 ! A149  A(48,49,124)          120.4666         estimate D2E/DX2                !
 ! A150  A(50,49,124)          119.8406         estimate D2E/DX2                !
 ! A151  A(49,50,51)           120.8491         estimate D2E/DX2                !
 ! A152  A(49,50,123)          119.5378         estimate D2E/DX2                !
 ! A153  A(51,50,123)          119.6129         estimate D2E/DX2                !
 ! A154  A(50,51,52)           119.653          estimate D2E/DX2                !
 ! A155  A(50,51,122)          119.9397         estimate D2E/DX2                !
 ! A156  A(52,51,122)          120.3947         estimate D2E/DX2                !
 ! A157  A(35,52,51)           121.0033         estimate D2E/DX2                !
 ! A158  A(35,52,121)          115.5            estimate D2E/DX2                !
 ! A159  A(51,52,121)          123.4964         estimate D2E/DX2                !
 ! A160  A(37,53,54)           120.8502         estimate D2E/DX2                !
 ! A161  A(37,53,117)          115.6844         estimate D2E/DX2                !
 ! A162  A(54,53,117)          123.4621         estimate D2E/DX2                !
 ! A163  A(53,54,55)           119.4824         estimate D2E/DX2                !
 ! A164  A(53,54,116)          120.6379         estimate D2E/DX2                !
 ! A165  A(55,54,116)          119.878          estimate D2E/DX2                !
 ! A166  A(54,55,56)           121.0929         estimate D2E/DX2                !
 ! A167  A(54,55,118)          119.3651         estimate D2E/DX2                !
 ! A168  A(56,55,118)          119.5406         estimate D2E/DX2                !
 ! A169  A(55,56,57)           119.4891         estimate D2E/DX2                !
 ! A170  A(55,56,119)          120.0556         estimate D2E/DX2                !
 ! A171  A(57,56,119)          120.4101         estimate D2E/DX2                !
 ! A172  A(37,57,56)           120.7726         estimate D2E/DX2                !
 ! A173  A(37,57,120)          115.2071         estimate D2E/DX2                !
 ! A174  A(56,57,120)          123.9717         estimate D2E/DX2                !
 ! A175  A(31,58,59)           120.7451         estimate D2E/DX2                !
 ! A176  A(31,58,110)          115.1776         estimate D2E/DX2                !
 ! A177  A(59,58,110)          124.0306         estimate D2E/DX2                !
 ! A178  A(58,59,60)           119.5057         estimate D2E/DX2                !
 ! A179  A(58,59,109)          120.3538         estimate D2E/DX2                !
 ! A180  A(60,59,109)          120.1008         estimate D2E/DX2                !
 ! A181  A(59,60,61)           121.0948         estimate D2E/DX2                !
 ! A182  A(59,60,108)          119.5623         estimate D2E/DX2                !
 ! A183  A(61,60,108)          119.3421         estimate D2E/DX2                !
 ! A184  A(60,61,62)           119.4767         estimate D2E/DX2                !
 ! A185  A(60,61,106)          119.8445         estimate D2E/DX2                !
 ! A186  A(62,61,106)          120.6771         estimate D2E/DX2                !
 ! A187  A(31,62,61)           120.8422         estimate D2E/DX2                !
 ! A188  A(31,62,107)          115.6831         estimate D2E/DX2                !
 ! A189  A(61,62,107)          123.4718         estimate D2E/DX2                !
 ! A190  A(33,63,64)           120.9854         estimate D2E/DX2                !
 ! A191  A(33,63,103)          115.5044         estimate D2E/DX2                !
 ! A192  A(64,63,103)          123.5099         estimate D2E/DX2                !
 ! A193  A(63,64,65)           119.6416         estimate D2E/DX2                !
 ! A194  A(63,64,102)          120.4233         estimate D2E/DX2                !
 ! A195  A(65,64,102)          119.9229         estimate D2E/DX2                !
 ! A196  A(64,65,66)           120.866          estimate D2E/DX2                !
 ! A197  A(64,65,128)          119.606          estimate D2E/DX2                !
 ! A198  A(66,65,128)          119.5275         estimate D2E/DX2                !
 ! A199  A(65,66,67)           119.66           estimate D2E/DX2                !
 ! A200  A(65,66,104)          119.8267         estimate D2E/DX2                !
 ! A201  A(67,66,104)          120.4903         estimate D2E/DX2                !
 ! A202  A(33,67,66)           120.9746         estimate D2E/DX2                !
 ! A203  A(33,67,105)          115.9412         estimate D2E/DX2                !
 ! A204  A(66,67,105)          123.076          estimate D2E/DX2                !
 ! A205  A(32,68,69)           120.7368         estimate D2E/DX2                !
 ! A206  A(32,68,101)          115.1993         estimate D2E/DX2                !
 ! A207  A(69,68,101)          124.0169         estimate D2E/DX2                !
 ! A208  A(68,69,70)           119.5005         estimate D2E/DX2                !
 ! A209  A(68,69,100)          120.3592         estimate D2E/DX2                !
 ! A210  A(70,69,100)          120.0965         estimate D2E/DX2                !
 ! A211  A(69,70,71)           121.1121         estimate D2E/DX2                !
 ! A212  A(69,70,129)          119.4893         estimate D2E/DX2                !
 ! A213  A(71,70,129)          119.3973         estimate D2E/DX2                !
 ! A214  A(70,71,72)           119.4585         estimate D2E/DX2                !
 ! A215  A(70,71,99)           119.8351         estimate D2E/DX2                !
 ! A216  A(72,71,99)           120.7041         estimate D2E/DX2                !
 ! A217  A(32,72,71)           120.8382         estimate D2E/DX2                !
 ! A218  A(32,72,98)           115.6861         estimate D2E/DX2                !
 ! A219  A(71,72,98)           123.4736         estimate D2E/DX2                !
 ! A220  A(30,73,74)           121.0199         estimate D2E/DX2                !
 ! A221  A(30,73,111)          115.4858         estimate D2E/DX2                !
 ! A222  A(74,73,111)          123.494          estimate D2E/DX2                !
 ! A223  A(73,74,75)           119.6381         estimate D2E/DX2                !
 ! A224  A(73,74,112)          120.4067         estimate D2E/DX2                !
 ! A225  A(75,74,112)          119.9422         estimate D2E/DX2                !
 ! A226  A(74,75,76)           120.8415         estimate D2E/DX2                !
 ! A227  A(74,75,113)          119.5752         estimate D2E/DX2                !
 ! A228  A(76,75,113)          119.583          estimate D2E/DX2                !
 ! A229  A(75,76,77)           119.6915         estimate D2E/DX2                !
 ! A230  A(75,76,114)          119.8411         estimate D2E/DX2                !
 ! A231  A(77,76,114)          120.4428         estimate D2E/DX2                !
 ! A232  A(30,77,76)           120.9671         estimate D2E/DX2                !
 ! A233  A(30,77,115)          115.9659         estimate D2E/DX2                !
 ! A234  A(76,77,115)          123.0595         estimate D2E/DX2                !
 ! A235  A(42,91,137)          118.0841         estimate D2E/DX2                !
 ! A236  A(43,92,164)          117.6234         estimate D2E/DX2                !
 ! A237  A(38,95,169)          118.0328         estimate D2E/DX2                !
 ! A238  A(47,97,135)          118.4876         estimate D2E/DX2                !
 ! A239  A(72,98,167)          117.6209         estimate D2E/DX2                !
 ! A240  A(68,101,131)         118.4833         estimate D2E/DX2                !
 ! A241  A(63,103,133)         118.0117         estimate D2E/DX2                !
 ! A242  A(67,105,168)         118.0308         estimate D2E/DX2                !
 ! A243  A(62,107,132)         117.6121         estimate D2E/DX2                !
 ! A244  A(58,110,166)         118.5103         estimate D2E/DX2                !
 ! A245  A(73,111,162)         118.0869         estimate D2E/DX2                !
 ! A246  A(77,115,130)         118.0062         estimate D2E/DX2                !
 ! A247  A(53,117,136)         117.6232         estimate D2E/DX2                !
 ! A248  A(57,120,163)         118.4514         estimate D2E/DX2                !
 ! A249  A(52,121,165)         118.1033         estimate D2E/DX2                !
 ! A250  A(48,125,134)         118.0334         estimate D2E/DX2                !
 ! A251  A(115,130,138)        111.6978         estimate D2E/DX2                !
 ! A252  A(115,130,139)        105.7039         estimate D2E/DX2                !
 ! A253  A(115,130,140)        111.6471         estimate D2E/DX2                !
 ! A254  A(138,130,139)        109.179          estimate D2E/DX2                !
 ! A255  A(138,130,140)        109.1428         estimate D2E/DX2                !
 ! A256  A(139,130,140)        109.3819         estimate D2E/DX2                !
 ! A257  A(101,131,141)        105.5118         estimate D2E/DX2                !
 ! A258  A(101,131,142)        111.3829         estimate D2E/DX2                !
 ! A259  A(101,131,143)        111.8113         estimate D2E/DX2                !
 ! A260  A(141,131,142)        109.3592         estimate D2E/DX2                !
 ! A261  A(141,131,143)        109.0436         estimate D2E/DX2                !
 ! A262  A(142,131,143)        109.6148         estimate D2E/DX2                !
 ! A263  A(107,132,144)        111.4592         estimate D2E/DX2                !
 ! A264  A(107,132,145)        105.7786         estimate D2E/DX2                !
 ! A265  A(107,132,146)        111.7872         estimate D2E/DX2                !
 ! A266  A(144,132,145)        109.1771         estimate D2E/DX2                !
 ! A267  A(144,132,146)        109.1944         estimate D2E/DX2                !
 ! A268  A(145,132,146)        109.3557         estimate D2E/DX2                !
 ! A269  A(103,133,147)        106.0555         estimate D2E/DX2                !
 ! A270  A(103,133,148)        111.3733         estimate D2E/DX2                !
 ! A271  A(103,133,149)        111.0814         estimate D2E/DX2                !
 ! A272  A(147,133,148)        109.0946         estimate D2E/DX2                !
 ! A273  A(147,133,149)        110.0667         estimate D2E/DX2                !
 ! A274  A(148,133,149)        109.1177         estimate D2E/DX2                !
 ! A275  A(125,134,150)        105.6625         estimate D2E/DX2                !
 ! A276  A(125,134,151)        111.6698         estimate D2E/DX2                !
 ! A277  A(125,134,152)        111.6617         estimate D2E/DX2                !
 ! A278  A(150,134,151)        109.3611         estimate D2E/DX2                !
 ! A279  A(150,134,152)        109.2303         estimate D2E/DX2                !
 ! A280  A(151,134,152)        109.1663         estimate D2E/DX2                !
 ! A281  A(97,135,153)         105.5331         estimate D2E/DX2                !
 ! A282  A(97,135,154)         111.444          estimate D2E/DX2                !
 ! A283  A(97,135,155)         111.8242         estimate D2E/DX2                !
 ! A284  A(153,135,154)        109.3525         estimate D2E/DX2                !
 ! A285  A(153,135,155)        108.9792         estimate D2E/DX2                !
 ! A286  A(154,135,155)        109.5888         estimate D2E/DX2                !
 ! A287  A(117,136,156)        105.7784         estimate D2E/DX2                !
 ! A288  A(117,136,157)        111.7543         estimate D2E/DX2                !
 ! A289  A(117,136,158)        111.5069         estimate D2E/DX2                !
 ! A290  A(156,136,157)        109.3367         estimate D2E/DX2                !
 ! A291  A(156,136,158)        109.1612         estimate D2E/DX2                !
 ! A292  A(157,136,158)        109.2127         estimate D2E/DX2                !
 ! A293  A(91,137,159)         106.0396         estimate D2E/DX2                !
 ! A294  A(91,137,160)         111.0914         estimate D2E/DX2                !
 ! A295  A(91,137,161)         111.4551         estimate D2E/DX2                !
 ! A296  A(159,137,160)        110.076          estimate D2E/DX2                !
 ! A297  A(159,137,161)        109.0057         estimate D2E/DX2                !
 ! A298  A(160,137,161)        109.1186         estimate D2E/DX2                !
 ! A299  A(111,162,170)        111.4465         estimate D2E/DX2                !
 ! A300  A(111,162,171)        111.0686         estimate D2E/DX2                !
 ! A301  A(111,162,172)        105.9961         estimate D2E/DX2                !
 ! A302  A(170,162,171)        109.1205         estimate D2E/DX2                !
 ! A303  A(170,162,172)        109.1011         estimate D2E/DX2                !
 ! A304  A(171,162,172)        110.0549         estimate D2E/DX2                !
 ! A305  A(120,163,188)        105.5356         estimate D2E/DX2                !
 ! A306  A(120,163,189)        111.4066         estimate D2E/DX2                !
 ! A307  A(120,163,190)        111.7814         estimate D2E/DX2                !
 ! A308  A(188,163,189)        109.4143         estimate D2E/DX2                !
 ! A309  A(188,163,190)        108.904          estimate D2E/DX2                !
 ! A310  A(189,163,190)        109.6769         estimate D2E/DX2                !
 ! A311  A(92,164,185)         105.7617         estimate D2E/DX2                !
 ! A312  A(92,164,186)         111.7511         estimate D2E/DX2                !
 ! A313  A(92,164,187)         111.5126         estimate D2E/DX2                !
 ! A314  A(185,164,186)        109.3154         estimate D2E/DX2                !
 ! A315  A(185,164,187)        109.206          estimate D2E/DX2                !
 ! A316  A(186,164,187)        109.2043         estimate D2E/DX2                !
 ! A317  A(121,165,173)        105.9764         estimate D2E/DX2                !
 ! A318  A(121,165,174)        111.4314         estimate D2E/DX2                !
 ! A319  A(121,165,175)        111.0954         estimate D2E/DX2                !
 ! A320  A(173,165,174)        109.0931         estimate D2E/DX2                !
 ! A321  A(173,165,175)        110.0871         estimate D2E/DX2                !
 ! A322  A(174,165,175)        109.1048         estimate D2E/DX2                !
 ! A323  A(110,166,179)        111.7994         estimate D2E/DX2                !
 ! A324  A(110,166,180)        105.4983         estimate D2E/DX2                !
 ! A325  A(110,166,181)        111.3404         estimate D2E/DX2                !
 ! A326  A(179,166,180)        108.974          estimate D2E/DX2                !
 ! A327  A(179,166,181)        109.6994         estimate D2E/DX2                !
 ! A328  A(180,166,181)        109.4079         estimate D2E/DX2                !
 ! A329  A(98,167,182)         105.7623         estimate D2E/DX2                !
 ! A330  A(98,167,183)         111.5253         estimate D2E/DX2                !
 ! A331  A(98,167,184)         111.7261         estimate D2E/DX2                !
 ! A332  A(182,167,183)        109.2326         estimate D2E/DX2                !
 ! A333  A(182,167,184)        109.326          estimate D2E/DX2                !
 ! A334  A(183,167,184)        109.1812         estimate D2E/DX2                !
 ! A335  A(105,168,176)        105.6777         estimate D2E/DX2                !
 ! A336  A(105,168,177)        111.6994         estimate D2E/DX2                !
 ! A337  A(105,168,178)        111.6876         estimate D2E/DX2                !
 ! A338  A(176,168,177)        109.358          estimate D2E/DX2                !
 ! A339  A(176,168,178)        109.1553         estimate D2E/DX2                !
 ! A340  A(177,168,178)        109.1704         estimate D2E/DX2                !
 ! A341  A(95,169,191)         105.664          estimate D2E/DX2                !
 ! A342  A(95,169,192)         111.7199         estimate D2E/DX2                !
 ! A343  A(95,169,193)         111.6529         estimate D2E/DX2                !
 ! A344  A(191,169,192)        109.1921         estimate D2E/DX2                !
 ! A345  A(191,169,193)        109.3518         estimate D2E/DX2                !
 ! A346  A(192,169,193)        109.1688         estimate D2E/DX2                !
 ! D1    D(5,1,2,3)             -1.8245         estimate D2E/DX2                !
 ! D2    D(5,1,2,18)          -178.2765         estimate D2E/DX2                !
 ! D3    D(6,1,2,3)            121.2769         estimate D2E/DX2                !
 ! D4    D(6,1,2,18)           -55.1751         estimate D2E/DX2                !
 ! D5    D(9,1,2,3)           -123.3742         estimate D2E/DX2                !
 ! D6    D(9,1,2,18)            60.1738         estimate D2E/DX2                !
 ! D7    D(2,1,5,4)             -0.8125         estimate D2E/DX2                !
 ! D8    D(2,1,5,17)          -177.4037         estimate D2E/DX2                !
 ! D9    D(6,1,5,4)           -121.8836         estimate D2E/DX2                !
 ! D10   D(6,1,5,17)            61.5252         estimate D2E/DX2                !
 ! D11   D(9,1,5,4)            122.9963         estimate D2E/DX2                !
 ! D12   D(9,1,5,17)           -53.5949         estimate D2E/DX2                !
 ! D13   D(2,1,6,7)            122.8177         estimate D2E/DX2                !
 ! D14   D(2,1,6,10)           -53.7574         estimate D2E/DX2                !
 ! D15   D(5,1,6,7)           -122.1531         estimate D2E/DX2                !
 ! D16   D(5,1,6,10)            61.2718         estimate D2E/DX2                !
 ! D17   D(9,1,6,7)             -0.8904         estimate D2E/DX2                !
 ! D18   D(9,1,6,10)          -177.4655         estimate D2E/DX2                !
[...]
 Alpha virt. eigenvalues --    3.29061   3.29117   3.30986   3.31778   3.34790
 Alpha virt. eigenvalues --    3.34988   3.35014   3.35045   3.35573   3.35658
 Alpha virt. eigenvalues --    3.39630   3.41574   3.46609   3.46662   3.46748
 Alpha virt. eigenvalues --    3.46782   3.47083   3.47087   3.47221   3.47242
 Alpha virt. eigenvalues --    3.55236   3.55402   4.06105   4.06422   4.06534
 Alpha virt. eigenvalues --    4.06745   4.07360   4.07774   4.08110   4.09717
 Alpha virt. eigenvalues --    4.10771   4.10776   4.10908   4.10962   4.10989
 Alpha virt. eigenvalues --    4.11272   4.11363   4.11442   4.11486   4.11536
 Alpha virt. eigenvalues --    4.12585   4.13109   4.13651   4.14078   4.15211
 Alpha virt. eigenvalues --    4.15653   4.15656   4.15791   4.17036   4.17069
 Alpha virt. eigenvalues --    4.18326   4.19146   4.19320   4.20628   4.20863
 Alpha virt. eigenvalues --    4.21336   4.21390   4.21414   4.21884   4.22457
 Alpha virt. eigenvalues --    4.22691   4.23180   4.23676   4.23701   4.23836
 Alpha virt. eigenvalues --    4.24882   4.25004   4.25091   4.25749   4.25999
 Alpha virt. eigenvalues --    4.27116   4.27215   4.27278   4.27815   4.29223
 Alpha virt. eigenvalues --    4.29517   4.31264   4.31841   4.33452   4.34245
 Alpha virt. eigenvalues --    4.36454   4.36756   4.37152   4.38358   4.38884
 Alpha virt. eigenvalues --    4.39956   4.42095   4.43151   4.43747   4.44017
 Alpha virt. eigenvalues --    4.44118   4.44120   4.44334   4.44406   4.45656
 Alpha virt. eigenvalues --    4.46851   4.47801   4.48076   4.48669   4.49456
 Alpha virt. eigenvalues --    4.49894   4.50119   4.50241   4.54802   4.55578
 Alpha virt. eigenvalues --    4.57247   4.60362   4.62540   4.62595   4.62925
 Alpha virt. eigenvalues --    4.65048   4.66215   4.66573   4.66875   4.67260
 Alpha virt. eigenvalues --    4.71508   4.71832   4.72748   4.76085   4.83717
 Alpha virt. eigenvalues --    4.89313   4.89749   4.91203   4.96243   4.96537
 Alpha virt. eigenvalues --    4.96710   4.97126   5.05745   5.05924   5.06001
 Alpha virt. eigenvalues --    5.06110
          Condensed to atoms (all electrons):
 Mulliken atomic charges:
              1
     1  C   -0.282180
     2  C    0.121501
     3  C    0.068778
     4  C    0.068785
     5  C    0.121503
     6  C    0.121503
     7  C    0.068784
     8  C    0.068781
     9  C    0.121491
    10  C   -0.232602
    11  C    0.348080
    12  C   -0.173840
    13  C   -0.207870
    14  C   -0.207859
    15  C   -0.173858
    16  C    0.348101
    17  C   -0.232600
    18  C   -0.232629
    19  C    0.348183
    20  C   -0.173894
    21  C   -0.207861
    22  C   -0.207878
    23  C   -0.173850
    24  C    0.348106
    25  C   -0.232615
    26  N   -0.629073
    27  N   -0.629067
    28  N   -0.629046
    29  N   -0.629067
    30  C    0.189766
    31  C    0.177701
    32  C    0.177708
    33  C    0.189676
    34  C    0.177766
    35  C    0.189783
    36  C    0.189751
    37  C    0.177783
    38  C    0.344769
    39  C   -0.214985
    40  C   -0.143749
    41  C   -0.209041
    42  C    0.366553
    43  C    0.347786
    44  C   -0.209077
    45  C   -0.144506
    46  C   -0.221140
    47  C    0.386161
    48  C    0.344772
    49  C   -0.214982
    50  C   -0.143749
    51  C   -0.209040
    52  C    0.366536
    53  C    0.347761
    54  C   -0.209065
    55  C   -0.144508
    56  C   -0.221156
    57  C    0.386148
    58  C    0.386205
    59  C   -0.221174
    60  C   -0.144503
    61  C   -0.209065
    62  C    0.347759
    63  C    0.366590
    64  C   -0.209053
    65  C   -0.143741
    66  C   -0.214988
    67  C    0.344789
    68  C    0.386197
    69  C   -0.221156
    70  C   -0.144502
    71  C   -0.209077
    72  C    0.347794
    73  C    0.366552
    74  C   -0.209048
    75  C   -0.143745
    76  C   -0.214985
    77  C    0.344777
    78  H    0.139136
    79  H    0.139129
    80  H    0.128077
    81  H    0.116138
    82  H    0.116138
    83  H    0.128077
    84  H    0.116140
    85  H    0.128079
    86  H    0.116138
    87  H    0.128078
    88  H    0.139138
    89  H    0.139144
    90  H    0.122442
    91  O   -0.507056
    92  O   -0.507543
    93  H    0.123325
    94  H    0.121888
    95  O   -0.506333
    96  H    0.124968
    97  O   -0.502415
    98  O   -0.507540
    99  H    0.123326
   100  H    0.124976
   101  O   -0.502421
   102  H    0.122448
   103  O   -0.507045
   104  H    0.121891
   105  O   -0.506324
   106  H    0.123330
   107  O   -0.507542
   108  H    0.120030
   109  H    0.124980
   110  O   -0.502415
   111  O   -0.507054
   112  H    0.122442
   113  H    0.120015
   114  H    0.121886
   115  O   -0.506325
   116  H    0.123328
   117  O   -0.507546
   118  H    0.120027
   119  H    0.124969
   120  O   -0.502411
   121  O   -0.507061
   122  H    0.122438
   123  H    0.120012
   124  H    0.121886
   125  O   -0.506327
   126  H    0.120017
   127  H    0.120020
   128  H    0.120022
   129  H    0.120021
   130  C   -0.208359
   131  C   -0.224539
   132  C   -0.212802
   133  C   -0.237623
   134  C   -0.208360
   135  C   -0.224527
   136  C   -0.212803
   137  C   -0.237595
   138  H    0.147700
   139  H    0.164742
   140  H    0.147114
   141  H    0.170489
   142  H    0.135000
   143  H    0.168005
   144  H    0.151932
   145  H    0.166699
   146  H    0.148580
   147  H    0.221445
   148  H    0.132060
   149  H    0.142170
   150  H    0.164744
   151  H    0.147113
   152  H    0.147699
   153  H    0.170491
   154  H    0.135004
   155  H    0.167984
   156  H    0.166698
   157  H    0.148580
   158  H    0.151929
   159  H    0.221434
   160  H    0.142165
   161  H    0.132061
   162  C   -0.237614
   163  C   -0.224520
   164  C   -0.212807
   165  C   -0.237602
   166  C   -0.224532
   167  C   -0.212806
   168  C   -0.208366
   169  C   -0.208364
   170  H    0.132053
   171  H    0.142167
   172  H    0.221446
   173  H    0.221452
   174  H    0.132048
   175  H    0.142165
   176  H    0.164736
   177  H    0.147117
   178  H    0.147708
   179  H    0.167974
   180  H    0.170483
   181  H    0.135010
   182  H    0.166695
   183  H    0.151923
   184  H    0.148589
   185  H    0.166692
   186  H    0.148590
   187  H    0.151923
   188  H    0.170483
   189  H    0.135014
   190  H    0.167956
   191  H    0.164737
   192  H    0.147704
   193  H    0.147114
 Sum of Mulliken atomic charges =   0.00000
 Mulliken charges with hydrogens summed into heavy atoms:
              1
     1  C   -0.282180
     2  C    0.121501
     3  C    0.068778
     4  C    0.068785
     5  C    0.121503
     6  C    0.121503
     7  C    0.068784
     8  C    0.068781
     9  C    0.121491
    10  C   -0.093458
    11  C    0.348080
    12  C   -0.045762
    13  C   -0.091732
    14  C   -0.091722
    15  C   -0.045780
    16  C    0.348101
    17  C   -0.093462
    18  C   -0.093499
    19  C    0.348183
    20  C   -0.045817
    21  C   -0.091723
    22  C   -0.091738
    23  C   -0.045770
    24  C    0.348106
    25  C   -0.093480
    26  N   -0.629073
    27  N   -0.629067
    28  N   -0.629046
    29  N   -0.629067
    30  C    0.189766
    31  C    0.177701
    32  C    0.177708
    33  C    0.189676
    34  C    0.177766
    35  C    0.189783
    36  C    0.189751
    37  C    0.177783
    38  C    0.344769
    39  C   -0.093096
    40  C   -0.023732
    41  C   -0.086599
    42  C    0.366553
    43  C    0.347786
    44  C   -0.085752
    45  C   -0.024486
    46  C   -0.096172
    47  C    0.386161
    48  C    0.344772
    49  C   -0.093096
    50  C   -0.023737
    51  C   -0.086602
    52  C    0.366536
    53  C    0.347761
    54  C   -0.085737
    55  C   -0.024482
    56  C   -0.096186
    57  C    0.386148
    58  C    0.386205
    59  C   -0.096194
    60  C   -0.024473
    61  C   -0.085735
    62  C    0.347759
    63  C    0.366590
    64  C   -0.086605
    65  C   -0.023718
    66  C   -0.093097
    67  C    0.344789
    68  C    0.386197
    69  C   -0.096180
    70  C   -0.024481
    71  C   -0.085751
    72  C    0.347794
    73  C    0.366552
    74  C   -0.086605
    75  C   -0.023730
    76  C   -0.093099
    77  C    0.344777
    91  O   -0.507056
    92  O   -0.507543
    95  O   -0.506333
    97  O   -0.502415
    98  O   -0.507540
   101  O   -0.502421
   103  O   -0.507045
   105  O   -0.506324
   107  O   -0.507542
   110  O   -0.502415
   111  O   -0.507054
   115  O   -0.506325
   117  O   -0.507546
   120  O   -0.502411
   121  O   -0.507061
   125  O   -0.506327
   130  C    0.251197
   131  C    0.248955
   132  C    0.254408
   133  C    0.258052
   134  C    0.251197
   135  C    0.248952
   136  C    0.254404
   137  C    0.258065
   162  C    0.258053
   163  C    0.248932
   164  C    0.254399
   165  C    0.258063
   166  C    0.248935
   167  C    0.254402
   168  C    0.251195
   169  C    0.251192
 Sum of Mulliken charges with hydrogens summed into heavy atoms =   0.00000
 Electronic spatial extent (au):  <R**2>=         114712.6026
 Charge=              0.0000 electrons
 Dipole moment (field-independent basis, Debye):
    X=              0.0012    Y=             -0.0025    Z=              0.0030  Tot=              0.0041
 Quadrupole moment (field-independent basis, Debye-Ang):
   XX=           -542.0815   YY=           -513.5914   ZZ=           -581.6398
   XY=             -0.0360   XZ=              0.0013   YZ=             -0.0028
 Traceless Quadrupole moment (field-independent basis, Debye-Ang):
   XX=              3.6894   YY=             32.1795   ZZ=            -35.8689
   XY=             -0.0360   XZ=              0.0013   YZ=             -0.0028
 Octapole moment (field-independent basis, Debye-Ang**2):
  XXX=              0.0529  YYY=             -0.0467  ZZZ=              0.0423  XYY=              0.0094
  XXY=              0.0336  XXZ=              0.0966  XZZ=              0.0078  YZZ=             -0.0451
  YYZ=              0.1011  XYZ=            -20.5568
 Hexadecapole moment (field-independent basis, Debye-Ang**3):
 XXXX=         -66049.7129 YYYY=         -54897.3614 ZZZZ=         -20247.9554 XXXY=             -1.6305
 XXXZ=              0.1003 YYYX=             -0.7782 YYYZ=             -0.1304 ZZZX=              0.0053
 ZZZY=             -0.0581 XXYY=         -19848.7118 XXZZ=         -13842.0646 YYZZ=         -11770.4711
 XXYZ=             -0.0223 YYXZ=             -0.1348 ZZXY=             -0.0494
 N-N= 2.412166775188D+04 E-N=-5.957379858087D+04  KE= 4.819246426960D+03
 Leave Link  601 at Thu Aug  7 08:26:50 2014, MaxMem= 2147483648 cpu:      63.0
 (Enter /opt/g09/l9999.exe)
 1\1\GINC-CHPC-SCANDIUM\FOpt\RB3LYP\6-31G(d)\C89H84N4O16\JARVIST\07-Aug
 -2014\0\\#p opt b3lyp/6-31g*\\Auto Spiro\\0,1\C,12.8810033223,-11.2494
 590553,0.1735441756\C,11.5870113417,-11.9528741523,-0.2936518165\C,11.
 8511713114,-13.3039684305,-0.5899264723\C,13.2511661151,-13.5954407934
 ,-0.2996082515\C,13.8949737125,-12.4139873125,0.1159512087\C,13.233853
 2853,-10.0273519197,-0.703695903\C,13.3203986809,-8.8693344757,0.09287
 09561\C,13.1020250711,-9.228977041,1.4900859928\C,12.8084067798,-10.60
 35853761,1.5753364419\C,13.3927362957,-9.9467846139,-2.0835357245\C,13
 .6251155618,-8.6912644918,-2.6769142229\C,13.7093254132,-7.5432217409,
 -1.8737849544\C,13.556835303,-7.625766153,-0.4947204898\C,13.954743236
 1,-14.7994006788,-0.3551005255\C,15.2981545426,-14.8189807824,0.000901
 477\C,15.9494620813,-13.6471191766,0.4164077377\C,15.2412992584,-12.43
 12129368,0.4664178484\C,10.3177090827,-11.4216346141,-0.4994797415\C,9
 .3035913428,-12.2462843139,-1.0229051949\C,9.5775953039,-13.5915483408
 ,-1.3149851371\C,10.8443157651,-14.1229001651,-1.1029588989\C,13.16917
 14865,-8.4496349543,2.6458264206\C,12.9397295939,-9.0440179448,3.88112
 06325\C,12.6460284697,-10.4131801235,3.9772664182\C,12.5722228732,-11.
 1982283662,2.8107786038\N,13.7512073017,-8.5592813614,-4.0911928385\N,
 17.3189097128,-13.7162565291,0.8080354205\N,8.0011498533,-11.730093231
 7,-1.2886274099\N,12.45258852,-10.9923920282,5.2658950999\C,13.2966951
 137,-10.5977696741,6.3373574807\C,7.3037483584,-11.0020521091,-0.29197
 28952\C,11.3144225805,-11.797148202,5.5241430286\C,7.3311793503,-12.11
 77801588,-2.4790624028\C,14.6432234019,-9.3942198535,-4.8101552983\C,1
 3.1307784587,-7.4609853502,-4.7431713595\C,17.7645354586,-14.822126460
 7,1.5792154447\C,18.2624600329,-12.8039035611,0.272275412\C,18.8021963
 875,-15.6738383562,1.1377061079\C,19.2338313078,-16.7513266669,1.92314
 61904\C,18.6018883477,-17.0138186048,3.1352940547\C,17.5591277964,-16.
 2089610675,3.5877214688\C,17.156371942,-15.105771312,2.8252357786\C,14
 .2072982579,-10.1270024132,-5.9320084934\C,15.1057066257,-10.904572923
 2,-6.6765400638\C,16.4440224521,-10.9540145547,-6.2966919707\C,16.9077
 570183,-10.2358797948,-5.1942502673\C,16.0125882451,-9.4465731885,-4.4
 615398001\C,13.8674856467,-6.5345843412,-5.5152608743\C,13.2303851208,
 -5.4659437151,-6.1604877363\C,11.8588939637,-5.2879881757,-6.002690007
 9\C,11.1074917111,-6.168382266,-5.2280070299\C,11.7351292067,-7.261921
 0295,-4.6190110086\C,19.1072545725,-12.0543813059,1.1149503631\C,20.08
 03129593,-11.1979761303,0.5803458504\C,20.2074157561,-11.0863200428,-0
 .8013868582\C,19.3898914997,-11.8188631179,-1.6623071961\C,18.42965105
 ,-12.6863101205,-1.1268853956\C,7.0685458149,-11.5743070888,0.97949790
 35\C,6.3428189913,-10.8782549529,1.9541975666\C,5.8239429908,-9.618836
 0281,1.6528977003\C,6.0210223554,-9.0397004487,0.4024701\C,6.761964127
 4,-9.7306569362,-0.566891776\C,7.9320322552,-11.8790850257,-3.73798594
 53\C,7.3032055441,-12.2805961556,-4.9228865792\C,6.049384041,-12.88432
 4907,-4.8655534126\C,5.422566948,-13.1165596936,-3.6446040755\C,6.0703
 374427,-12.7555597905,-2.4553635201\C,10.0135243213,-11.2888515599,5.3
 033989054\C,8.8837291244,-12.0625163619,5.597005106\C,9.048318397,-13.
 3370478297,6.139804734\C,10.3162532672,-13.855194961,6.3881590682\C,11
 .4468664295,-13.085951428,6.0782107477\C,14.699063541,-10.752326949,6.
 2261337838\C,15.5520871678,-10.3417080961,7.2578156713\C,15.0116589222
 ,-9.8137005048,8.4278508047\C,13.6356361225,-9.6656379347,8.5768078428
 \C,12.7830941467,-10.0348900905,7.5275028064\H,12.3680379416,-12.26180
 1953,2.8937143083\H,10.1058491979,-10.3755830534,-0.2978588546\H,8.778
 4379789,-14.216093211,-1.7010504828\H,11.0408973434,-15.1678792566,-1.
 3314276261\H,13.4642543164,-15.7149163699,-0.6777053801\H,15.865180815
 9,-15.7430064337,-0.0482273288\H,13.3928800247,-7.386950019,2.58684491
 64\H,12.9747794276,-8.4516695694,4.7897755283\H,13.6274347856,-6.72788
 51591,0.1149094356\H,13.9066560632,-6.5869865313,-2.3475287708\H,15.74
 46745337,-11.5326998554,0.8114471823\H,13.3049540191,-10.8278416229,-2
 .7126529627\H,17.0811653192,-16.4254302921,4.5352143514\O,16.173607224
 3,-14.2470750543,3.2073996251\O,12.879161534,-10.013715015,-6.23454141
 37\H,14.7670370483,-11.473539356,-7.5338873909\H,20.0335148506,-17.396
 881999,1.5809094937\O,19.3284073685,-15.3859286155,-0.0888715962\H,17.
 9595979482,-10.2589025556,-4.9346762611\O,16.3720159336,-8.6624968466,
 -3.4144948369\O,12.7283644968,-13.5098063055,6.2936306915\H,10.4203284
 71,-14.8489449552,6.8066007404\H,7.8885290375,-11.6622361396,5.4432792
 671\O,9.9627221118,-10.0172016604,4.8337366146\H,7.7747272579,-12.1039
 126405,-5.8817922335\O,9.1376350483,-11.2509885902,-3.7030268412\H,4.4
 536768263,-13.6002575117,-3.619137077\O,5.550775481,-13.0031617697,-1.
 2172123412\H,5.6121734898,-8.0589061962,0.1918647204\O,6.9999720327,-9
 .2435012561,-1.8216143198\H,5.2508915879,-9.0826342729,2.4048590557\H,
 6.149469132,-11.3280179554,2.9209461675\O,7.5603947204,-12.8272155676,
 1.1485000849\O,15.1376022338,-11.3110400498,5.0665037588\H,16.62496110
 83,-10.4534959064,7.1603751356\H,15.673303636,-9.5097549373,9.23459937
 98\H,13.2345595156,-9.2397929854,9.4884843829\O,11.4288982163,-9.86601
 3662,7.5710000312\H,20.7233913806,-10.6165392036,1.2298461866\O,18.915
 5572167,-12.2321574883,2.4565723236\H,20.9606384222,-10.4213320154,-1.
 2158651626\H,19.5269173734,-11.7453345615,-2.7347302351\O,17.629696019
 3,-13.4883832296,-1.8732306616\O,11.0738845766,-8.1898215447,-3.876725
 0854\H,10.0405770402,-6.0170958408,-5.1191278468\H,11.3686022033,-4.44
 83250954,-6.4880562372\H,13.800594754,-4.762721447,-6.7552150748\O,15.
 2156716008,-6.7434151463,-5.570413918\H,18.9246456209,-17.8606813742,3
 .7350028603\H,17.1401757596,-11.5579380008,-6.8728808682\H,5.554730249
 6,-13.1815103238,-5.7864217256\H,8.1719107008,-13.9338802805,6.3786523
 732\C,10.8493383204,-9.322602988,8.7414662953\C,8.7007718474,-9.409706
 326,4.6180167185\C,6.3449247791,-8.0497215938,-2.2123721124\C,9.901084
 9939,-11.1724693807,-4.8979493099\C,16.008822756,-5.8608977214,-6.3406
 426536\C,17.7314729071,-8.6206167323,-3.0167399832\C,19.8389382334,-11
 .6358142192,3.3502284956\C,15.3707266391,-14.5845329393,4.3291699709\H
 ,11.0427149275,-9.9504474229,9.6218273905\H,9.7743659692,-9.2914693272
 ,8.5527973221\H,11.2121204443,-8.304967076,8.940880771\H,8.9182684705,
 -8.3964720403,4.2751711866\H,8.1135028034,-9.3608875146,5.5458632725\H
 ,8.1235682407,-9.9313821709,3.845731174\H,5.2544253319,-8.1401797164,-
 2.1230908102\H,6.6085101753,-7.8950641126,-3.2604253563\H,6.6829613864
 ,-7.1862894523,-1.6232857785\H,10.82832449,-10.6660787594,-4.633379930
 3\H,9.3826894752,-10.5836755224,-5.6678532437\H,10.1137201135,-12.1736
 674604,-5.2954270647\H,17.033964896,-6.224497545,-6.2457254003\H,15.95
 34010446,-4.8301063652,-5.96466682\H,15.7193194502,-5.8714498033,-7.40
 02154916\H,17.7728668839,-7.9094769677,-2.1896602728\H,18.3788331426,-
 8.2676139618,-3.8318981501\H,18.0839783547,-9.5973347368,-2.6653157914
 \H,19.5480025899,-11.9724486242,4.3471465759\H,19.7948382263,-10.53882
 46125,3.3118055136\H,20.8671383796,-11.960982139,3.1442791513\H,14.639
 5330461,-13.7838426592,4.4313899929\H,14.8636990203,-15.5461780399,4.1
 750259641\H,15.9689359866,-14.6380787386,5.2497359393\C,16.5299228923,
 -11.2987776567,4.7869370545\C,17.754281594,-13.4686029348,-3.284673983
 3\C,12.4151684636,-10.5920318369,-7.4416562352\C,9.7204960101,-7.94324
 94752,-3.5240128457\C,7.3383174897,-13.4972232703,2.3772717669\C,12.92
 32917963,-14.7237078738,6.9974220901\C,4.2831378765,-13.6241557558,-1.
 1242376448\C,20.3823737938,-16.1905512018,-0.5817324447\H,17.093198423
 5,-11.8858361276,5.526020279\H,16.9193077467,-10.2722392243,4.77285758
 83\H,16.6473350915,-11.7610127793,3.8077841894\H,9.4072911223,-8.78784
 92709,-2.9118521092\H,9.0765999649,-7.8918302138,-4.413347048\H,9.6256
 715822,-7.0068645856,-2.9585119632\H,4.072433078,-13.7090510344,-0.056
 2822009\H,4.28668119,-14.6265110233,-1.5739403531\H,3.497614648,-13.02
 13018116,-1.5997747133\H,7.8181547621,-12.9801644474,3.2164085305\H,7.
 7934796319,-14.4824094795,2.2601007229\H,6.2651024016,-13.6151932225,2
 .5833114496\H,14.0027893431,-14.8226625696,7.1266654551\H,12.441493233
 1,-14.7000509305,7.9836572204\H,12.5458093088,-15.5879871317,6.4340993
 969\H,11.3627309454,-10.3126970888,-7.5201326613\H,12.4986007805,-11.6
 873288249,-7.4287271518\H,12.959098354,-10.2010188651,-8.3114844085\H,
 17.0405506115,-14.2082597643,-3.652087878\H,18.7673382397,-13.75187911
 1,-3.6034724397\H,17.4989379001,-12.4880391908,-3.7030577279\H,20.6434
 96977,-15.7725935743,-1.5560318574\H,21.2633527756,-16.1552119048,0.07
 34349853\H,20.0715324605,-17.2367481235,-0.707479517\\Version=EM64L-G0
 9RevA.02\State=1-A\HF=-4864.4073341\RMSD=6.535e-09\RMSF=3.783e-06\Dipo
 le=-0.0012625,-0.0010265,-0.0001348\Quadrupole=16.5770734,-23.9361611,
 7.3590877,-3.4008874,-10.9747686,-7.910714\PG=C01 [X(C89H84N4O16)]\\@


 THE FIRST AND LAST THING REQUIRED OF GENIUS IS THE LOVE OF TRUTH.

                          -- GOETHE
 Job cpu time: 11 days 22 hours 24 minutes 26.9 seconds.
 File lengths (MBytes):  RWF=   2006 Int=      0 D2E=      0 Chk=    199 Scr=      1
 Normal termination of Gaussian 09 at Thu Aug  7 08:26:50 2014.
