 Entering Gaussian System, Link 0=g09
 Input=b3lyp-631gs_opt/HF_2.com
 Output=b3lyp-631gs_opt/HF_2.log
 Initial command:
 /opt/g09/l1.exe /home/jarvist/super_spiro/Gau-21891.inp -scrdir=/home/jarvist/super_spiro/
 Default is to use a total of   8 processors:
                                8 via shared-memory
                                1 via Linda
 Entering Link 1 = /opt/g09/l1.exe PID=     21893.
  
 Copyright (c) 1988,1990,1992,1993,1995,1998,2003,2009, Gaussian, Inc.
                  All Rights Reserved.
  
 This is part of the Gaussian(R) 09 program.  It is based on
 the Gaussian(R) 03 system (copyright 2003, Gaussian, Inc.),
 the Gaussian(R) 98 system (copyright 1998, Gaussian, Inc.),
 the Gaussian(R) 94 system (copyright 1995, Gaussian, Inc.),
 the Gaussian 92(TM) system (copyright 1992, Gaussian, Inc.),
 the Gaussian 90(TM) system (copyright 1990, Gaussian, Inc.),
 the Gaussian 88(TM) system (copyright 1988, Gaussian, Inc.),
 the Gaussian 86(TM) system (copyright 1986, Carnegie Mellon
 University), and the Gaussian 82(TM) system (copyright 1983,
 Carnegie Mellon University). Gaussian is a federally registered
 trademark of Gaussian, Inc.
  
 This software contains proprietary and confidential information,
 including trade secrets, belonging to Gaussian, Inc.
  
 This software is provided under written license and may be
 used, copied, transmitted, or stored only in accord with that
 written license.
  
 The following legend is applicable only to US Government
 contracts under FAR:
  
                    RESTRICTED RIGHTS LEGEND
  
 Use, reproduction and disclosure by the US Government is
 subject to restrictions as set forth in subparagraphs (a)
 and (c) of the Commercial Computer Software - Restricted
 Rights clause in FAR 52.227-19.
  
 Gaussian, Inc.
 340 Quinnipiac St., Bldg. 40, Wallingford CT 06492
  
  
 ---------------------------------------------------------------
 Warning -- This program may not be used in any manner that
 competes with the business of Gaussian, Inc. or will provide
 assistance to any competitor of Gaussian, Inc.  The licensee
 of this program is prohibited from giving any competitor of
 Gaussian, Inc. access to this program.  By using this program,
 the user acknowledges that Gaussian, Inc. is engaged in the
 business of creating and licensing software in the field of
 computational chemistry and represents and warrants to the
 licensee that it is not a competitor of Gaussian, Inc. and that
 it will not use this program in any manner prohibited above.
 ---------------------------------------------------------------
  

 Cite this work as:
 Gaussian 09, Revision A.02,
 M. J. Frisch, G. W. Trucks, H. B. Schlegel, G. E. Scuseria, 
 M. A. Robb, J. R. Cheeseman, G. Scalmani, V. Barone, B. Mennucci, 
 G. A. Petersson, H. Nakatsuji, M. Caricato, X. Li, H. P. Hratchian, 
 A. F. Izmaylov, J. Bloino, G. Zheng, J. L. Sonnenberg, M. Hada, 
 M. Ehara, K. Toyota, R. Fukuda, J. Hasegawa, M. Ishida, T. Nakajima, 
 Y. Honda, O. Kitao, H. Nakai, T. Vreven, J. A. Montgomery, Jr., 
 J. E. Peralta, F. Ogliaro, M. Bearpark, J. J. Heyd, E. Brothers, 
 K. N. Kudin, V. N. Staroverov, R. Kobayashi, J. Normand, 
 K. Raghavachari, A. Rendell, J. C. Burant, S. S. Iyengar, J. Tomasi, 
 M. Cossi, N. Rega, J. M. Millam, M. Klene, J. E. Knox, J. B. Cross, 
 V. Bakken, C. Adamo, J. Jaramillo, R. Gomperts, R. E. Stratmann, 
 O. Yazyev, A. J. Austin, R. Cammi, C. Pomelli, J. W. Ochterski, 
 R. L. Martin, K. Morokuma, V. G. Zakrzewski, G. A. Voth, 
 P. Salvador, J. J. Dannenberg, S. Dapprich, A. D. Daniels, 
 O. Farkas, J. B. Foresman, J. V. Ortiz, J. Cioslowski, 
 and D. J. Fox, Gaussian, Inc., Wallingford CT, 2009.
 
 ******************************************
 Gaussian 09:  EM64L-G09RevA.02 11-Jun-2009
                 7-Aug-2014 
 ******************************************
 %mem=16GB
 %nprocs=24
 Will use up to   24 processors via shared memory.
 Default route:  MaxDisk=100GB
 -------------------
 #p opt b3lyp/6-31g*
 -------------------
 1/14=-1,18=20,19=15,26=3,38=1/1,3;
 2/9=110,12=2,17=6,18=5,40=1/2;
 3/5=1,6=6,7=1,11=2,16=1,25=1,30=1,71=1,74=-5/1,2,3;
 4//1;
 5/5=2,38=5/2;
 6/7=2,8=2,9=2,10=2,28=1/1;
 7//1,2,3,16;
 1/14=-1,18=20,19=15/3(2);
 2/9=110/2;
 99//99;
 2/9=110/2;
 3/5=1,6=6,7=1,11=2,16=1,25=1,30=1,71=1,74=-5/1,2,3;
 4/5=5,16=3/1;
 5/5=2,38=5/2;
 7//1,2,3,16;
 1/14=-1,18=20,19=15/3(-5);
 2/9=110/2;
 6/7=2,8=2,9=2,10=2,19=2,28=1/1;
 99/9=1/99;
 Leave Link    1 at Thu Aug  7 08:26:50 2014, MaxMem= 2147483648 cpu:       1.6
 (Enter /opt/g09/l101.exe)
 ----------
 Auto Spiro
 ----------
 Symbolic Z-matrix:
 Charge =  0 Multiplicity = 1
 C                     12.93032  -11.10743   0.14819 
 C                     11.69976  -11.86964  -0.34627 
 C                     12.0724  -13.1605  -0.78936 
 C                     13.49074  -13.36611  -0.51718 
 C                     14.01149  -12.19834   0.07365 
 C                     13.29829  -9.91113  -0.74725 
 C                     13.5838  -8.78417   0.04735 
 C                     13.37208  -9.1261    1.44904 
 C                     12.90951  -10.4567   1.53218 
 C                     13.3583  -9.85577  -2.13318 
 C                     13.73053  -8.64736  -2.75678 
 C                     14.06536  -7.53443  -1.9564 
 C                     13.98383  -7.59409  -0.57007 
 C                     14.32881  -14.47076  -0.6933 
 C                     15.64915  -14.41202  -0.25233 
 C                     16.14953  -13.26581   0.39508 
 C                     15.31322  -12.13933   0.54097 
 C                     10.39319  -11.4218  -0.47332 
 C                     9.42954  -12.26583  -1.06251 
 C                     9.80204  -13.5489  -1.49737 
 C                     11.11442  -13.99735  -1.36623 
 C                     13.58059  -8.3881    2.62037 
 C                     13.33326  -8.9824    3.85329 
 C                     12.87083  -10.30743   3.93719 
 C                     12.64908  -11.04754   2.7626 
 N                     13.76115  -8.52107  -4.16481 
 N                     17.46363  -13.24655   0.92814 
 N                     8.09587  -11.80289  -1.24246 
 N                     12.66036  -10.8899   5.22237 
 C                     13.74738  -10.94837   6.12762 
 C                     7.38823  -11.28132  -0.12429 
 C                     11.54873  -11.75453   5.40914 
 C                     7.3168   -12.30321  -2.32292 
 C                     13.84216  -9.65615  -5.01414 
 C                     13.37435  -7.28931  -4.76327 
 C                     18.15109  -14.46184   1.19721 
 C                     18.22549  -12.04589   0.8855 
 C                     19.43223  -14.66841   0.66216 
 C                     20.13809  -15.84691   0.89141 
 C                     19.56132  -16.86481   1.65226 
 C                     18.29229  -16.67543   2.19809 
 C                     17.58879  -15.48365   2.00358 
 C                     12.88334  -9.85847  -6.01222 
 C                     12.96206  -10.93584  -6.89655 
 C                     14.00645  -11.84774  -6.77305 
 C                     14.98365  -11.66411  -5.7904 
 C                     14.92834  -10.56543  -4.92505 
 C                     14.15887  -6.72826  -5.80435 
 C                     13.76294  -5.524    -6.39815 
 C                     12.61402  -4.86092  -5.95786 
 C                     11.84546  -5.39859  -4.92747 
 C                     12.22519  -6.60888  -4.34674 
 C                     19.01159  -11.64991   1.99986 
 C                     19.76873  -10.4751   1.93347 
 C                     19.73136  -9.66888   0.79284 
 C                     18.94469  -10.03727  -0.29609 
 C                     18.21186  -11.22252  -0.24464 
 C                     7.46283  -11.91745   1.12483 
 C                     6.67659  -11.5016   2.19642 
 C                     5.79462  -10.42955   2.03856 
 C                     5.73472  -9.76277   0.81582 
 C                     6.53032  -10.16186  -0.26281 
 C                     7.78671  -12.19474  -3.65896 
 C                     7.01115  -12.69284  -4.71038 
 C                     5.76151  -13.26853  -4.46158 
 C                     5.28277  -13.35747  -3.15772 
 C                     6.06416  -12.88545  -2.10225 
 C                     10.23612  -11.26735   5.17925 
 C                     9.14083  -12.11436   5.372 
 C                     9.33085  -13.42962   5.80761 
 C                     10.61553  -13.90904   6.05053 
 C                     11.71275  -13.07224   5.84343 
 C                     15.06591  -11.08915   5.65888 
 C                     16.14472  -11.17156   6.53574 
 C                     15.93254  -11.13442   7.91484 
 C                     14.633   -10.98432   8.3994 
 C                     13.54665  -10.86917   7.53025 
 H                     12.31085  -12.08208   2.83172 
 H                     10.10759  -10.4208  -0.14792 
 H                     9.04661  -14.19569  -1.9427 
 H                     11.38013  -14.99912  -1.70596 
 H                     13.95993  -15.38476  -1.16052 
 H                     16.29966  -15.27539  -0.38129 
 H                     13.93745  -7.35839   2.57489 
 H                     13.49646  -8.4243    4.77495 
 H                     14.23481  -6.7133    0.02266 
 H                     14.3788  -6.6113   -2.44115 
 H                     15.68664  -11.24122   1.03263 
 H                     13.10014  -10.72527  -2.73794 
 H                     17.81754  -17.44546   2.80617 
 O                     16.32855  -15.40255   2.54551 
 H                     12.06943  -9.13789  -6.09519 
 H                     12.20316  -11.06232  -7.66827 
 H                     21.12976  -15.97462   0.45771 
 H                     19.86743  -13.88196   0.04528 
 H                     15.80533  -12.37301  -5.71664 
 O                     15.88045  -10.27993  -3.99632 
 H                     12.7242  -13.43393   6.02884 
 H                     10.76907  -14.93182   6.39272 
 H                     8.13201  -11.74332   5.20503 
 O                     10.14256  -9.96054   4.80072 
 H                     7.37061  -12.61272  -5.73404 
 O                     8.99506  -11.58578  -3.82502 
 H                     4.30972  -13.80281  -2.95344 
 H                     5.70208  -12.96421  -1.07771 
 H                     5.07221  -8.91011   0.66751 
 O                     6.36682  -9.48114  -1.44419 
 H                     5.16039  -10.10782   2.8647 
 H                     6.73386  -12.03834   3.1431 
 H                     8.12767  -12.77486   1.23048 
 H                     15.23106  -11.14451   4.58331 
 H                     17.1523  -11.28516   6.13512 
 H                     16.76875  -11.21235   8.60922 
 H                     14.4298  -10.93625   9.46937 
 O                     12.29132  -10.74121   8.08397 
 H                     20.37396  -10.16969   2.78435 
 O                     18.96196  -12.4626   3.094 
 H                     20.31409  -8.7485    0.7684 
 H                     18.90173  -9.40809  -1.18478 
 H                     17.59307  -11.5257  -1.0875 
 H                     11.63137  -7.04534  -3.54383 
 H                     10.94628  -4.88959  -4.58232 
 H                     12.32849  -3.91912  -6.42607 
 H                     14.36077  -5.08693  -7.19514 
 O                     15.27934  -7.42071  -6.1529 
 H                     20.09634  -17.79775   1.82833 
 H                     14.0773  -12.70384  -7.44367 
 H                     5.1675   -13.64013  -5.29616 
 H                     8.46372  -14.07183   5.96146 
 C                     11.70053  -9.44237   7.93109 
 C                     8.84389  -9.42022   4.5724 
 C                     7.5384   -8.83873  -1.97365 
 C                     9.54113  -11.53426  -5.13898 
 C                     16.07965  -6.90267  -7.20928 
 C                     17.0328  -11.1143  -3.95718 
 C                     19.77325  -12.12541   4.21398 
 C                     16.13991  -14.42091   3.57569 
 H                     12.29252  -8.68471   8.4701 
 H                     10.70191  -9.50895   8.37697 
 H                     11.60873  -9.15903   6.87293 
 H                     9.00465  -8.3734    4.29559 
 H                     8.22451  -9.46595   5.48303 
 H                     8.32824  -9.93923   3.75123 
 H                     7.20002  -8.28968  -2.85908 
 H                     8.31138  -9.56219  -2.26395 
 H                     7.94819  -8.12739  -1.23906 
 H                     10.52251  -11.06215  -5.03747 
 H                     8.9104   -10.93451  -5.81521 
 H                     9.66763  -12.54404  -5.55952 
 H                     16.90666  -7.60966  -7.32873 
 H                     16.48245  -5.90763  -6.96147 
 H                     15.51297  -6.84169  -8.15174 
 H                     17.70572  -10.65627  -3.22613 
 H                     17.5346  -11.15341  -4.93704 
 H                     16.78186  -12.13734  -3.63489 
 H                     19.5868  -12.90431   4.96023 
 H                     19.49898  -11.14332   4.63195 
 H                     20.84224  -12.12197   3.94944 
 H                     16.74347  -14.67513   4.46143 
 H                     15.07659  -14.45818   3.83423 
 H                     16.40379  -13.41154   3.23581 
 
 NAtoms=    161 NQM=    161 NQMF=      0 NMic=      0 NMicF=      0 NTot=    161.
                    Isotopes and Nuclear Properties:
 (Nuclear quadrupole moments (NQMom) in fm**2, nuclear magnetic moments (NMagM)
  in nuclear magnetons)

  Atom         1           2           3           4           5           6           7           8           9          10
 IAtWgt=          12          12          12          12          12          12          12          12          12          12
 AtmWgt=  12.0000000  12.0000000  12.0000000  12.0000000  12.0000000  12.0000000  12.0000000  12.0000000  12.0000000  12.0000000
 NucSpn=           0           0           0           0           0           0           0           0           0           0
 AtZEff=   0.0000000   0.0000000   0.0000000   0.0000000   0.0000000   0.0000000   0.0000000   0.0000000   0.0000000   0.0000000
 NQMom=    0.0000000   0.0000000   0.0000000   0.0000000   0.0000000   0.0000000   0.0000000   0.0000000   0.0000000   0.0000000
 NMagM=    0.0000000   0.0000000   0.0000000   0.0000000   0.0000000   0.0000000   0.0000000   0.0000000   0.0000000   0.0000000

  Atom        11          12          13          14          15          16          17          18          19          20
 IAtWgt=          12          12          12          12          12          12          12          12          12          12
 AtmWgt=  12.0000000  12.0000000  12.0000000  12.0000000  12.0000000  12.0000000  12.0000000  12.0000000  12.0000000  12.0000000
 NucSpn=           0           0           0           0           0           0           0           0           0           0
 AtZEff=   0.0000000   0.0000000   0.0000000   0.0000000   0.0000000   0.0000000   0.0000000   0.0000000   0.0000000   0.0000000
 NQMom=    0.0000000   0.0000000   0.0000000   0.0000000   0.0000000   0.0000000   0.0000000   0.0000000   0.0000000   0.0000000
 NMagM=    0.0000000   0.0000000   0.0000000   0.0000000   0.0000000   0.0000000   0.0000000   0.0000000   0.0000000   0.0000000

  Atom        21          22          23          24          25          26          27          28          29          30
 IAtWgt=          12          12          12          12          12          14          14          14          14          12
 AtmWgt=  12.0000000  12.0000000  12.0000000  12.0000000  12.0000000  14.0030740  14.0030740  14.0030740  14.0030740  12.0000000
 NucSpn=           0           0           0           0           0           2           2           2           2           0
 AtZEff=   0.0000000   0.0000000   0.0000000   0.0000000   0.0000000   0.0000000   0.0000000   0.0000000   0.0000000   0.0000000
 NQMom=    0.0000000   0.0000000   0.0000000   0.0000000   0.0000000   2.0440000   2.0440000   2.0440000   2.0440000   0.0000000
 NMagM=    0.0000000   0.0000000   0.0000000   0.0000000   0.0000000   0.4037610   0.4037610   0.4037610   0.4037610   0.0000000

  Atom        31          32          33          34          35          36          37          38          39          40
 IAtWgt=          12          12          12          12          12          12          12          12          12          12
 AtmWgt=  12.0000000  12.0000000  12.0000000  12.0000000  12.0000000  12.0000000  12.0000000  12.0000000  12.0000000  12.0000000
 NucSpn=           0           0           0           0           0           0           0           0           0           0
 AtZEff=   0.0000000   0.0000000   0.0000000   0.0000000   0.0000000   0.0000000   0.0000000   0.0000000   0.0000000   0.0000000
 NQMom=    0.0000000   0.0000000   0.0000000   0.0000000   0.0000000   0.0000000   0.0000000   0.0000000   0.0000000   0.0000000
 NMagM=    0.0000000   0.0000000   0.0000000   0.0000000   0.0000000   0.0000000   0.0000000   0.0000000   0.0000000   0.0000000

  Atom        41          42          43          44          45          46          47          48          49          50
 IAtWgt=          12          12          12          12          12          12          12          12          12          12
 AtmWgt=  12.0000000  12.0000000  12.0000000  12.0000000  12.0000000  12.0000000  12.0000000  12.0000000  12.0000000  12.0000000
 NucSpn=           0           0           0           0           0           0           0           0           0           0
 AtZEff=   0.0000000   0.0000000   0.0000000   0.0000000   0.0000000   0.0000000   0.0000000   0.0000000   0.0000000   0.0000000
 NQMom=    0.0000000   0.0000000   0.0000000   0.0000000   0.0000000   0.0000000   0.0000000   0.0000000   0.0000000   0.0000000
 NMagM=    0.0000000   0.0000000   0.0000000   0.0000000   0.0000000   0.0000000   0.0000000   0.0000000   0.0000000   0.0000000

  Atom        51          52          53          54          55          56          57          58          59          60
 IAtWgt=          12          12          12          12          12          12          12          12          12          12
 AtmWgt=  12.0000000  12.0000000  12.0000000  12.0000000  12.0000000  12.0000000  12.0000000  12.0000000  12.0000000  12.0000000
 NucSpn=           0           0           0           0           0           0           0           0           0           0
 AtZEff=   0.0000000   0.0000000   0.0000000   0.0000000   0.0000000   0.0000000   0.0000000   0.0000000   0.0000000   0.0000000
 NQMom=    0.0000000   0.0000000   0.0000000   0.0000000   0.0000000   0.0000000   0.0000000   0.0000000   0.0000000   0.0000000
 NMagM=    0.0000000   0.0000000   0.0000000   0.0000000   0.0000000   0.0000000   0.0000000   0.0000000   0.0000000   0.0000000

  Atom        61          62          63          64          65          66          67          68          69          70
 IAtWgt=          12          12          12          12          12          12          12          12          12          12
 AtmWgt=  12.0000000  12.0000000  12.0000000  12.0000000  12.0000000  12.0000000  12.0000000  12.0000000  12.0000000  12.0000000
 NucSpn=           0           0           0           0           0           0           0           0           0           0
 AtZEff=   0.0000000   0.0000000   0.0000000   0.0000000   0.0000000   0.0000000   0.0000000   0.0000000   0.0000000   0.0000000
 NQMom=    0.0000000   0.0000000   0.0000000   0.0000000   0.0000000   0.0000000   0.0000000   0.0000000   0.0000000   0.0000000
 NMagM=    0.0000000   0.0000000   0.0000000   0.0000000   0.0000000   0.0000000   0.0000000   0.0000000   0.0000000   0.0000000

  Atom        71          72          73          74          75          76          77          78          79          80
 IAtWgt=          12          12          12          12          12          12          12           1           1           1
 AtmWgt=  12.0000000  12.0000000  12.0000000  12.0000000  12.0000000  12.0000000  12.0000000   1.0078250   1.0078250   1.0078250
 NucSpn=           0           0           0           0           0           0           0           1           1           1
 AtZEff=   0.0000000   0.0000000   0.0000000   0.0000000   0.0000000   0.0000000   0.0000000   0.0000000   0.0000000   0.0000000
 NQMom=    0.0000000   0.0000000   0.0000000   0.0000000   0.0000000   0.0000000   0.0000000   0.0000000   0.0000000   0.0000000
 NMagM=    0.0000000   0.0000000   0.0000000   0.0000000   0.0000000   0.0000000   0.0000000   2.7928460   2.7928460   2.7928460

  Atom        81          82          83          84          85          86          87          88          89          90
 IAtWgt=           1           1           1           1           1           1           1           1           1           1
 AtmWgt=   1.0078250   1.0078250   1.0078250   1.0078250   1.0078250   1.0078250   1.0078250   1.0078250   1.0078250   1.0078250
 NucSpn=           1           1           1           1           1           1           1           1           1           1
 AtZEff=   0.0000000   0.0000000   0.0000000   0.0000000   0.0000000   0.0000000   0.0000000   0.0000000   0.0000000   0.0000000
 NQMom=    0.0000000   0.0000000   0.0000000   0.0000000   0.0000000   0.0000000   0.0000000   0.0000000   0.0000000   0.0000000
 NMagM=    2.7928460   2.7928460   2.7928460   2.7928460   2.7928460   2.7928460   2.7928460   2.7928460   2.7928460   2.7928460

  Atom        91          92          93          94          95          96          97          98          99         100
 IAtWgt=          16           1           1           1           1           1          16           1           1           1
 AtmWgt=  15.9949146   1.0078250   1.0078250   1.0078250   1.0078250   1.0078250  15.9949146   1.0078250   1.0078250   1.0078250
 NucSpn=           0           1           1           1           1           1           0           1           1           1
 AtZEff=   0.0000000   0.0000000   0.0000000   0.0000000   0.0000000   0.0000000   0.0000000   0.0000000   0.0000000   0.0000000
 NQMom=    0.0000000   0.0000000   0.0000000   0.0000000   0.0000000   0.0000000   0.0000000   0.0000000   0.0000000   0.0000000
 NMagM=    0.0000000   2.7928460   2.7928460   2.7928460   2.7928460   2.7928460   0.0000000   2.7928460   2.7928460   2.7928460

  Atom       101         102         103         104         105         106         107         108         109         110
 IAtWgt=          16           1          16           1           1           1          16           1           1           1
 AtmWgt=  15.9949146   1.0078250  15.9949146   1.0078250   1.0078250   1.0078250  15.9949146   1.0078250   1.0078250   1.0078250
 NucSpn=           0           1           0           1           1           1           0           1           1           1
 AtZEff=   0.0000000   0.0000000   0.0000000   0.0000000   0.0000000   0.0000000   0.0000000   0.0000000   0.0000000   0.0000000
 NQMom=    0.0000000   0.0000000   0.0000000   0.0000000   0.0000000   0.0000000   0.0000000   0.0000000   0.0000000   0.0000000
 NMagM=    0.0000000   2.7928460   0.0000000   2.7928460   2.7928460   2.7928460   0.0000000   2.7928460   2.7928460   2.7928460

  Atom       111         112         113         114         115         116         117         118         119         120
 IAtWgt=           1           1           1           1          16           1          16           1           1           1
 AtmWgt=   1.0078250   1.0078250   1.0078250   1.0078250  15.9949146   1.0078250  15.9949146   1.0078250   1.0078250   1.0078250
 NucSpn=           1           1           1           1           0           1           0           1           1           1
 AtZEff=   0.0000000   0.0000000   0.0000000   0.0000000   0.0000000   0.0000000   0.0000000   0.0000000   0.0000000   0.0000000
 NQMom=    0.0000000   0.0000000   0.0000000   0.0000000   0.0000000   0.0000000   0.0000000   0.0000000   0.0000000   0.0000000
 NMagM=    2.7928460   2.7928460   2.7928460   2.7928460   0.0000000   2.7928460   0.0000000   2.7928460   2.7928460   2.7928460

  Atom       121         122         123         124         125         126         127         128         129         130
 IAtWgt=           1           1           1           1          16           1           1           1           1          12
 AtmWgt=   1.0078250   1.0078250   1.0078250   1.0078250  15.9949146   1.0078250   1.0078250   1.0078250   1.0078250  12.0000000
 NucSpn=           1           1           1           1           0           1           1           1           1           0
 AtZEff=   0.0000000   0.0000000   0.0000000   0.0000000   0.0000000   0.0000000   0.0000000   0.0000000   0.0000000   0.0000000
 NQMom=    0.0000000   0.0000000   0.0000000   0.0000000   0.0000000   0.0000000   0.0000000   0.0000000   0.0000000   0.0000000
 NMagM=    2.7928460   2.7928460   2.7928460   2.7928460   0.0000000   2.7928460   2.7928460   2.7928460   2.7928460   0.0000000

  Atom       131         132         133         134         135         136         137         138         139         140
 IAtWgt=          12          12          12          12          12          12          12           1           1           1
 AtmWgt=  12.0000000  12.0000000  12.0000000  12.0000000  12.0000000  12.0000000  12.0000000   1.0078250   1.0078250   1.0078250
 NucSpn=           0           0           0           0           0           0           0           1           1           1
 AtZEff=   0.0000000   0.0000000   0.0000000   0.0000000   0.0000000   0.0000000   0.0000000   0.0000000   0.0000000   0.0000000
 NQMom=    0.0000000   0.0000000   0.0000000   0.0000000   0.0000000   0.0000000   0.0000000   0.0000000   0.0000000   0.0000000
 NMagM=    0.0000000   0.0000000   0.0000000   0.0000000   0.0000000   0.0000000   0.0000000   2.7928460   2.7928460   2.7928460

  Atom       141         142         143         144         145         146         147         148         149         150
 IAtWgt=           1           1           1           1           1           1           1           1           1           1
 AtmWgt=   1.0078250   1.0078250   1.0078250   1.0078250   1.0078250   1.0078250   1.0078250   1.0078250   1.0078250   1.0078250
 NucSpn=           1           1           1           1           1           1           1           1           1           1
 AtZEff=   0.0000000   0.0000000   0.0000000   0.0000000   0.0000000   0.0000000   0.0000000   0.0000000   0.0000000   0.0000000
 NQMom=    0.0000000   0.0000000   0.0000000   0.0000000   0.0000000   0.0000000   0.0000000   0.0000000   0.0000000   0.0000000
 NMagM=    2.7928460   2.7928460   2.7928460   2.7928460   2.7928460   2.7928460   2.7928460   2.7928460   2.7928460   2.7928460

  Atom       151         152         153         154         155         156         157         158         159         160
 IAtWgt=           1           1           1           1           1           1           1           1           1           1
 AtmWgt=   1.0078250   1.0078250   1.0078250   1.0078250   1.0078250   1.0078250   1.0078250   1.0078250   1.0078250   1.0078250
 NucSpn=           1           1           1           1           1           1           1           1           1           1
 AtZEff=   0.0000000   0.0000000   0.0000000   0.0000000   0.0000000   0.0000000   0.0000000   0.0000000   0.0000000   0.0000000
 NQMom=    0.0000000   0.0000000   0.0000000   0.0000000   0.0000000   0.0000000   0.0000000   0.0000000   0.0000000   0.0000000
 NMagM=    2.7928460   2.7928460   2.7928460   2.7928460   2.7928460   2.7928460   2.7928460   2.7928460   2.7928460   2.7928460

  Atom       161
 IAtWgt=           1
 AtmWgt=   1.0078250
 NucSpn=           1
 AtZEff=   0.0000000
 NQMom=    0.0000000
 NMagM=    2.7928460
 Leave Link  101 at Thu Aug  7 08:26:51 2014, MaxMem= 2147483648 cpu:       4.8
 (Enter /opt/g09/l103.exe)

 GradGradGradGradGradGradGradGradGradGradGradGradGradGradGradGradGradGrad
 Berny optimization.
 Initialization pass.
                           ----------------------------
                           !    Initial Parameters    !
                           ! (Angstroms and Degrees)  !
 --------------------------                            --------------------------
 ! Name  Definition              Value          Derivative Info.                !
 --------------------------------------------------------------------------------
 ! R1    R(1,2)                  1.5296         estimate D2E/DX2                !
 ! R2    R(1,5)                  1.5377         estimate D2E/DX2                !
 ! R3    R(1,6)                  1.5389         estimate D2E/DX2                !
 ! R4    R(1,9)                  1.5295         estimate D2E/DX2                !
 ! R5    R(2,3)                  1.4147         estimate D2E/DX2                !
 ! R6    R(2,18)                 1.387          estimate D2E/DX2                !
 ! R7    R(3,4)                  1.4588         estimate D2E/DX2                !
 ! R8    R(3,21)                 1.3967         estimate D2E/DX2                !
 ! R9    R(4,5)                  1.4085         estimate D2E/DX2                !
 ! R10   R(4,14)                 1.3977         estimate D2E/DX2                !
 ! R11   R(5,17)                 1.3843         estimate D2E/DX2                !
 ! R12   R(6,7)                  1.4082         estimate D2E/DX2                !
 ! R13   R(6,10)                 1.3883         estimate D2E/DX2                !
 ! R14   R(7,8)                  1.4582         estimate D2E/DX2                !
 ! R15   R(7,13)                 1.3991         estimate D2E/DX2                !
 ! R16   R(8,9)                  1.4112         estimate D2E/DX2                !
 ! R17   R(8,22)                 1.4            estimate D2E/DX2                !
 ! R18   R(9,25)                 1.3895         estimate D2E/DX2                !
 ! R19   R(10,11)                1.4099         estimate D2E/DX2                !
 ! R20   R(10,89)                1.0901         estimate D2E/DX2                !
 ! R21   R(11,12)                1.4111         estimate D2E/DX2                !
 ! R22   R(11,26)                1.414          estimate D2E/DX2                !
 ! R23   R(12,13)                1.39           estimate D2E/DX2                !
 ! R24   R(12,87)                1.0888         estimate D2E/DX2                !
 ! R25   R(13,86)                1.0909         estimate D2E/DX2                !
 ! R26   R(14,15)                1.3933         estimate D2E/DX2                !
 ! R27   R(14,82)                1.0908         estimate D2E/DX2                !
 ! R28   R(15,16)                1.4083         estimate D2E/DX2                !
 ! R29   R(15,83)                1.0887         estimate D2E/DX2                !
 ! R30   R(16,17)                1.4106         estimate D2E/DX2                !
 ! R31   R(16,27)                1.4182         estimate D2E/DX2                !
 ! R32   R(17,88)                1.0899         estimate D2E/DX2                !
 ! R33   R(18,19)                1.41           estimate D2E/DX2                !
 ! R34   R(18,79)                1.0906         estimate D2E/DX2                !
 ! R35   R(19,20)                1.405          estimate D2E/DX2                !
 ! R36   R(19,28)                1.4232         estimate D2E/DX2                !
 ! R37   R(20,21)                1.3931         estimate D2E/DX2                !
 ! R38   R(20,80)                1.0896         estimate D2E/DX2                !
 ! R39   R(21,81)                1.0907         estimate D2E/DX2                !
 ! R40   R(22,23)                1.3908         estimate D2E/DX2                !
 ! R41   R(22,84)                1.0907         estimate D2E/DX2                !
 ! R42   R(23,24)                1.4059         estimate D2E/DX2                !
 ! R43   R(23,85)                1.0898         estimate D2E/DX2                !
 ! R44   R(24,25)                1.4059         estimate D2E/DX2                !
 ! R45   R(24,29)                1.4266         estimate D2E/DX2                !
 ! R46   R(25,78)                1.0906         estimate D2E/DX2                !
 ! R47   R(26,34)                1.42           estimate D2E/DX2                !
 ! R48   R(26,35)                1.423          estimate D2E/DX2                !
 ! R49   R(27,36)                1.4219         estimate D2E/DX2                !
 ! R50   R(27,37)                1.4226         estimate D2E/DX2                !
 ! R51   R(28,31)                1.4224         estimate D2E/DX2                !
 ! R52   R(28,33)                1.4229         estimate D2E/DX2                !
 ! R53   R(29,30)                1.4158         estimate D2E/DX2                !
 ! R54   R(29,32)                1.4206         estimate D2E/DX2                !
 ! R55   R(30,73)                1.4064         estimate D2E/DX2                !
 ! R56   R(30,77)                1.4191         estimate D2E/DX2                !
 ! R57   R(31,58)                1.4038         estimate D2E/DX2                !
 ! R58   R(31,62)                1.4172         estimate D2E/DX2                !
 ! R59   R(32,68)                1.4189         estimate D2E/DX2                !
 ! R60   R(32,72)                1.3971         estimate D2E/DX2                !
 ! R61   R(33,63)                1.4204         estimate D2E/DX2                !
 ! R62   R(33,67)                1.3989         estimate D2E/DX2                !
 ! R63   R(34,43)                1.3987         estimate D2E/DX2                !
 ! R64   R(34,47)                1.4193         estimate D2E/DX2                !
 ! R65   R(35,48)                1.4192         estimate D2E/DX2                !
 ! R66   R(35,52)                1.3989         estimate D2E/DX2                !
 ! R67   R(36,38)                1.4037         estimate D2E/DX2                !
 ! R68   R(36,42)                1.4179         estimate D2E/DX2                !
 ! R69   R(37,53)                1.4201         estimate D2E/DX2                !
 ! R70   R(37,57)                1.3983         estimate D2E/DX2                !
 ! R71   R(38,39)                1.3927         estimate D2E/DX2                !
 ! R72   R(38,95)                1.0902         estimate D2E/DX2                !
 ! R73   R(39,40)                1.3956         estimate D2E/DX2                !
 ! R74   R(39,94)                1.0899         estimate D2E/DX2                !
 ! R75   R(40,41)                1.3944         estimate D2E/DX2                !
 ! R76   R(40,126)               1.0898         estimate D2E/DX2                !
 ! R77   R(41,42)                1.3975         estimate D2E/DX2                !
 ! R78   R(41,90)                1.09           estimate D2E/DX2                !
 ! R79   R(42,91)                1.3742         estimate D2E/DX2                !
 ! R80   R(43,44)                1.3961         estimate D2E/DX2                !
 ! R81   R(43,92)                1.0902         estimate D2E/DX2                !
 ! R82   R(44,45)                1.392          estimate D2E/DX2                !
 ! R83   R(44,93)                1.0897         estimate D2E/DX2                !
 ! R84   R(45,46)                1.3979         estimate D2E/DX2                !
 ! R85   R(45,127)               1.0898         estimate D2E/DX2                !
 ! R86   R(46,47)                1.3996         estimate D2E/DX2                !
 ! R87   R(46,96)                1.0877         estimate D2E/DX2                !
 ! R88   R(47,97)                1.3604         estimate D2E/DX2                !
 ! R89   R(48,49)                1.3999         estimate D2E/DX2                !
 ! R90   R(48,125)               1.3625         estimate D2E/DX2                !
 ! R91   R(49,50)                1.3977         estimate D2E/DX2                !
 ! R92   R(49,124)               1.0879         estimate D2E/DX2                !
 ! R93   R(50,51)                1.3934         estimate D2E/DX2                !
 ! R94   R(50,123)               1.0898         estimate D2E/DX2                !
 ! R95   R(51,52)                1.3951         estimate D2E/DX2                !
 ! R96   R(51,122)               1.0894         estimate D2E/DX2                !
 ! R97   R(52,121)               1.0899         estimate D2E/DX2                !
 ! R98   R(53,54)                1.3992         estimate D2E/DX2                !
 ! R99   R(53,117)               1.3638         estimate D2E/DX2                !
 ! R100  R(54,55)                1.3973         estimate D2E/DX2                !
 ! R101  R(54,116)               1.0879         estimate D2E/DX2                !
 ! R102  R(55,56)                1.393          estimate D2E/DX2                !
 ! R103  R(55,118)               1.0896         estimate D2E/DX2                !
 ! R104  R(56,57)                1.3945         estimate D2E/DX2                !
 ! R105  R(56,119)               1.0897         estimate D2E/DX2                !
 ! R106  R(57,120)               1.0887         estimate D2E/DX2                !
 ! R107  R(58,59)                1.3926         estimate D2E/DX2                !
 ! R108  R(58,110)               1.0901         estimate D2E/DX2                !
 ! R109  R(59,60)                1.3972         estimate D2E/DX2                !
 ! R110  R(59,109)               1.0898         estimate D2E/DX2                !
 ! R111  R(60,61)                1.394          estimate D2E/DX2                !
 ! R112  R(60,108)               1.0901         estimate D2E/DX2                !
 ! R113  R(61,62)                1.3985         estimate D2E/DX2                !
 ! R114  R(61,106)               1.0899         estimate D2E/DX2                !
 ! R115  R(62,107)               1.3732         estimate D2E/DX2                !
 ! R116  R(63,64)                1.3982         estimate D2E/DX2                !
 ! R117  R(63,103)               1.3633         estimate D2E/DX2                !
 ! R118  R(64,65)                1.3982         estimate D2E/DX2                !
 ! R119  R(64,102)               1.0879         estimate D2E/DX2                !
 ! R120  R(65,66)                1.3918         estimate D2E/DX2                !
 ! R121  R(65,128)               1.0897         estimate D2E/DX2                !
 ! R122  R(66,67)                1.3955         estimate D2E/DX2                !
 ! R123  R(66,104)               1.0894         estimate D2E/DX2                !
 ! R124  R(67,105)               1.0895         estimate D2E/DX2                !
 ! R125  R(68,69)                1.3979         estimate D2E/DX2                !
 ! R126  R(68,101)               1.3637         estimate D2E/DX2                !
 ! R127  R(69,70)                1.3985         estimate D2E/DX2                !
 ! R128  R(69,100)               1.0878         estimate D2E/DX2                !
 ! R129  R(70,71)                1.3926         estimate D2E/DX2                !
 ! R130  R(70,129)               1.09           estimate D2E/DX2                !
 ! R131  R(71,72)                1.3954         estimate D2E/DX2                !
 ! R132  R(71,99)                1.0894         estimate D2E/DX2                !
 ! R133  R(72,98)                1.0901         estimate D2E/DX2                !
 ! R134  R(73,74)                1.3927         estimate D2E/DX2                !
 ! R135  R(73,111)               1.0896         estimate D2E/DX2                !
 ! R136  R(74,75)                1.3958         estimate D2E/DX2                !
 ! R137  R(74,112)               1.0902         estimate D2E/DX2                !
 ! R138  R(75,76)                1.395          estimate D2E/DX2                !
 ! R139  R(75,113)               1.0897         estimate D2E/DX2                !
 ! R140  R(76,77)                1.396          estimate D2E/DX2                !
 ! R141  R(76,114)               1.0902         estimate D2E/DX2                !
 ! R142  R(77,115)               1.378          estimate D2E/DX2                !
 ! R143  R(91,137)               1.4354         estimate D2E/DX2                !
 ! R144  R(97,135)               1.4232         estimate D2E/DX2                !
 ! R145  R(101,131)              1.425          estimate D2E/DX2                !
 ! R146  R(103,133)              1.4238         estimate D2E/DX2                !
 ! R147  R(107,132)              1.4372         estimate D2E/DX2                !
 ! R148  R(115,130)              1.4351         estimate D2E/DX2                !
 ! R149  R(117,136)              1.4235         estimate D2E/DX2                !
 ! R150  R(125,134)              1.423          estimate D2E/DX2                !
 ! R151  R(130,138)              1.1023         estimate D2E/DX2                !
 ! R152  R(130,139)              1.0957         estimate D2E/DX2                !
 ! R153  R(130,140)              1.0993         estimate D2E/DX2                !
 ! R154  R(131,141)              1.0947         estimate D2E/DX2                !
 ! R155  R(131,142)              1.1023         estimate D2E/DX2                !
 ! R156  R(131,143)              1.0998         estimate D2E/DX2                !
 ! R157  R(132,144)              1.0954         estimate D2E/DX2                !
 ! R158  R(132,145)              1.0978         estimate D2E/DX2                !
 ! R159  R(132,146)              1.1016         estimate D2E/DX2                !
 ! R160  R(133,147)              1.0938         estimate D2E/DX2                !
 ! R161  R(133,148)              1.1022         estimate D2E/DX2                !
 ! R162  R(133,149)              1.1011         estimate D2E/DX2                !
 ! R163  R(134,150)              1.0946         estimate D2E/DX2                !
 ! R164  R(134,151)              1.1017         estimate D2E/DX2                !
 ! R165  R(134,152)              1.1014         estimate D2E/DX2                !
 ! R166  R(135,153)              1.0941         estimate D2E/DX2                !
 ! R167  R(135,154)              1.1016         estimate D2E/DX2                !
 ! R168  R(135,155)              1.1016         estimate D2E/DX2                !
 ! R169  R(136,156)              1.0947         estimate D2E/DX2                !
 ! R170  R(136,157)              1.102          estimate D2E/DX2                !
 ! R171  R(136,158)              1.1012         estimate D2E/DX2                !
 ! R172  R(137,159)              1.1016         estimate D2E/DX2                !
 ! R173  R(137,160)              1.0949         estimate D2E/DX2                !
 ! R174  R(137,161)              1.0973         estimate D2E/DX2                !
 ! A1    A(2,1,5)              101.3297         estimate D2E/DX2                !
 ! A2    A(2,1,6)              113.0556         estimate D2E/DX2                !
 ! A3    A(2,1,9)              119.5754         estimate D2E/DX2                !
 ! A4    A(5,1,6)              110.8033         estimate D2E/DX2                !
 ! A5    A(5,1,9)              110.8097         estimate D2E/DX2                !
 ! A6    A(6,1,9)              101.4801         estimate D2E/DX2                !
 ! A7    A(1,2,3)              110.1212         estimate D2E/DX2                !
 ! A8    A(1,2,18)             128.7957         estimate D2E/DX2                !
 ! A9    A(3,2,18)             120.933          estimate D2E/DX2                !
 ! A10   A(2,3,4)              109.0421         estimate D2E/DX2                !
 ! A11   A(2,3,21)             119.6951         estimate D2E/DX2                !
 ! A12   A(4,3,21)             131.26           estimate D2E/DX2                !
 ! A13   A(3,4,5)              108.7157         estimate D2E/DX2                !
 ! A14   A(3,4,14)             132.1332         estimate D2E/DX2                !
 ! A15   A(5,4,14)             119.1049         estimate D2E/DX2                !
 ! A16   A(1,5,4)              110.3993         estimate D2E/DX2                !
 ! A17   A(1,5,17)             127.9188         estimate D2E/DX2                !
 ! A18   A(4,5,17)             121.6411         estimate D2E/DX2                !
 ! A19   A(1,6,7)              110.015          estimate D2E/DX2                !
 ! A20   A(1,6,10)             128.4754         estimate D2E/DX2                !
 ! A21   A(7,6,10)             121.5085         estimate D2E/DX2                !
 ! A22   A(6,7,8)              108.9839         estimate D2E/DX2                !
 ! A23   A(6,7,13)             119.3202         estimate D2E/DX2                !
 ! A24   A(8,7,13)             131.693          estimate D2E/DX2                !
 ! A25   A(7,8,9)              108.9848         estimate D2E/DX2                !
 ! A26   A(7,8,22)             131.221          estimate D2E/DX2                !
 ! A27   A(9,8,22)             119.7726         estimate D2E/DX2                !
 ! A28   A(1,9,8)              110.084          estimate D2E/DX2                !
 ! A29   A(1,9,25)             128.5278         estimate D2E/DX2                !
 ! A30   A(8,9,25)             120.9662         estimate D2E/DX2                !
 ! A31   A(6,10,11)            119.1528         estimate D2E/DX2                !
 ! A32   A(6,10,89)            120.7806         estimate D2E/DX2                !
 ! A33   A(11,10,89)           120.052          estimate D2E/DX2                !
 ! A34   A(10,11,12)           119.1931         estimate D2E/DX2                !
 ! A35   A(10,11,26)           121.5144         estimate D2E/DX2                !
 ! A36   A(12,11,26)           119.2885         estimate D2E/DX2                !
 ! A37   A(11,12,13)           121.1926         estimate D2E/DX2                !
 ! A38   A(11,12,87)           118.978          estimate D2E/DX2                !
 ! A39   A(13,12,87)           119.8236         estimate D2E/DX2                !
 ! A40   A(7,13,12)            119.5646         estimate D2E/DX2                !
 ! A41   A(7,13,86)            120.8482         estimate D2E/DX2                !
 ! A42   A(12,13,86)           119.587          estimate D2E/DX2                !
 ! A43   A(4,14,15)            119.6704         estimate D2E/DX2                !
 ! A44   A(4,14,82)            120.8935         estimate D2E/DX2                !
 ! A45   A(15,14,82)           119.4314         estimate D2E/DX2                !
 ! A46   A(14,15,16)           121.0991         estimate D2E/DX2                !
 ! A47   A(14,15,83)           119.6911         estimate D2E/DX2                !
 ! A48   A(16,15,83)           119.1836         estimate D2E/DX2                !
 ! A49   A(15,16,17)           119.1351         estimate D2E/DX2                !
 ! A50   A(15,16,27)           120.8678         estimate D2E/DX2                !
 ! A51   A(17,16,27)           119.9764         estimate D2E/DX2                !
 ! A52   A(5,17,16)            119.2461         estimate D2E/DX2                !
 ! A53   A(5,17,88)            120.6377         estimate D2E/DX2                !
 ! A54   A(16,17,88)           120.1073         estimate D2E/DX2                !
 ! A55   A(2,18,19)            119.2612         estimate D2E/DX2                !
 ! A56   A(2,18,79)            121.0441         estimate D2E/DX2                !
 ! A57   A(19,18,79)           119.677          estimate D2E/DX2                !
 ! A58   A(18,19,20)           119.6547         estimate D2E/DX2                !
 ! A59   A(18,19,28)           119.9058         estimate D2E/DX2                !
 ! A60   A(20,19,28)           120.4221         estimate D2E/DX2                !
 ! A61   A(19,20,21)           120.9705         estimate D2E/DX2                !
 ! A62   A(19,20,80)           118.9955         estimate D2E/DX2                !
 ! A63   A(21,20,80)           120.034          estimate D2E/DX2                !
 ! A64   A(3,21,20)            119.4823         estimate D2E/DX2                !
 ! A65   A(3,21,81)            120.7887         estimate D2E/DX2                !
 ! A66   A(20,21,81)           119.7266         estimate D2E/DX2                !
 ! A67   A(8,22,23)            119.3351         estimate D2E/DX2                !
 ! A68   A(8,22,84)            120.7618         estimate D2E/DX2                !
 ! A69   A(23,22,84)           119.9025         estimate D2E/DX2                !
 ! A70   A(22,23,24)           120.9375         estimate D2E/DX2                !
 ! A71   A(22,23,85)           120.2819         estimate D2E/DX2                !
 ! A72   A(24,23,85)           118.7806         estimate D2E/DX2                !
 ! A73   A(23,24,25)           119.8785         estimate D2E/DX2                !
 ! A74   A(23,24,29)           119.149          estimate D2E/DX2                !
 ! A75   A(25,24,29)           120.9593         estimate D2E/DX2                !
 ! A76   A(9,25,24)            119.1034         estimate D2E/DX2                !
 ! A77   A(9,25,78)            121.1702         estimate D2E/DX2                !
 ! A78   A(24,25,78)           119.6911         estimate D2E/DX2                !
 ! A79   A(11,26,34)           121.6979         estimate D2E/DX2                !
 ! A80   A(11,26,35)           119.3536         estimate D2E/DX2                !
 ! A81   A(34,26,35)           117.1219         estimate D2E/DX2                !
 ! A82   A(16,27,36)           120.4963         estimate D2E/DX2                !
 ! A83   A(16,27,37)           119.7627         estimate D2E/DX2                !
 ! A84   A(36,27,37)           117.9099         estimate D2E/DX2                !
 ! A85   A(19,28,31)           119.0852         estimate D2E/DX2                !
 ! A86   A(19,28,33)           119.6518         estimate D2E/DX2                !
 ! A87   A(31,28,33)           116.9672         estimate D2E/DX2                !
 ! A88   A(24,29,30)           118.6584         estimate D2E/DX2                !
 ! A89   A(24,29,32)           118.8402         estimate D2E/DX2                !
 ! A90   A(30,29,32)           119.4446         estimate D2E/DX2                !
 ! A91   A(29,30,73)           120.7187         estimate D2E/DX2                !
 ! A92   A(29,30,77)           121.4027         estimate D2E/DX2                !
 ! A93   A(73,30,77)           117.8785         estimate D2E/DX2                !
 ! A94   A(28,31,58)           120.4594         estimate D2E/DX2                !
 ! A95   A(28,31,62)           120.9305         estimate D2E/DX2                !
 ! A96   A(58,31,62)           118.4969         estimate D2E/DX2                !
 ! A97   A(29,32,68)           119.5787         estimate D2E/DX2                !
 ! A98   A(29,32,72)           121.5367         estimate D2E/DX2                !
 ! A99   A(68,32,72)           118.8703         estimate D2E/DX2                !
 ! A100  A(28,33,63)           120.4138         estimate D2E/DX2                !
 ! A101  A(28,33,67)           121.1216         estimate D2E/DX2                !
 ! A102  A(63,33,67)           118.4512         estimate D2E/DX2                !
 ! A103  A(26,34,43)           120.22           estimate D2E/DX2                !
 ! A104  A(26,34,47)           121.2129         estimate D2E/DX2                !
 ! A105  A(43,34,47)           118.4711         estimate D2E/DX2                !
 ! A106  A(26,35,48)           120.0295         estimate D2E/DX2                !
 ! A107  A(26,35,52)           121.2703         estimate D2E/DX2                !
 ! A108  A(48,35,52)           118.7001         estimate D2E/DX2                !
 ! A109  A(27,36,38)           119.6639         estimate D2E/DX2                !
 ! A110  A(27,36,42)           122.1267         estimate D2E/DX2                !
 ! A111  A(38,36,42)           118.208          estimate D2E/DX2                !
 ! A112  A(27,37,53)           120.5492         estimate D2E/DX2                !
 ! A113  A(27,37,57)           121.0616         estimate D2E/DX2                !
 ! A114  A(53,37,57)           118.3871         estimate D2E/DX2                !
 ! A115  A(36,38,39)           121.6257         estimate D2E/DX2                !
 ! A116  A(36,38,95)           118.2873         estimate D2E/DX2                !
 ! A117  A(39,38,95)           120.0838         estimate D2E/DX2                !
 ! A118  A(38,39,40)           119.8323         estimate D2E/DX2                !
 ! A119  A(38,39,94)           119.6572         estimate D2E/DX2                !
 ! A120  A(40,39,94)           120.499          estimate D2E/DX2                !
 ! A121  A(39,40,41)           119.3725         estimate D2E/DX2                !
 ! A122  A(39,40,126)          120.636          estimate D2E/DX2                !
 ! A123  A(41,40,126)          119.9895         estimate D2E/DX2                !
 ! A124  A(40,41,42)           121.2976         estimate D2E/DX2                !
 ! A125  A(40,41,90)           121.2543         estimate D2E/DX2                !
 ! A126  A(42,41,90)           117.4413         estimate D2E/DX2                !
 ! A127  A(36,42,41)           119.6084         estimate D2E/DX2                !
 ! A128  A(36,42,91)           123.053          estimate D2E/DX2                !
 ! A129  A(41,42,91)           117.1987         estimate D2E/DX2                !
 ! A130  A(34,43,44)           121.667          estimate D2E/DX2                !
 ! A131  A(34,43,92)           118.0644         estimate D2E/DX2                !
 ! A132  A(44,43,92)           120.2625         estimate D2E/DX2                !
 ! A133  A(43,44,45)           119.4508         estimate D2E/DX2                !
 ! A134  A(43,44,93)           119.9274         estimate D2E/DX2                !
 ! A135  A(45,44,93)           120.6185         estimate D2E/DX2                !
 ! A136  A(44,45,46)           120.0524         estimate D2E/DX2                !
 ! A137  A(44,45,127)          120.5849         estimate D2E/DX2                !
 ! A138  A(46,45,127)          119.3602         estimate D2E/DX2                !
 ! A139  A(45,46,47)           120.6695         estimate D2E/DX2                !
 ! A140  A(45,46,96)           119.348          estimate D2E/DX2                !
 ! A141  A(47,46,96)           119.9681         estimate D2E/DX2                !
 ! A142  A(34,47,46)           119.6248         estimate D2E/DX2                !
 ! A143  A(34,47,97)           116.3603         estimate D2E/DX2                !
 ! A144  A(46,47,97)           123.9994         estimate D2E/DX2                !
 ! A145  A(35,48,49)           119.6641         estimate D2E/DX2                !
 ! A146  A(35,48,125)          116.1894         estimate D2E/DX2                !
 ! A147  A(49,48,125)          124.1447         estimate D2E/DX2                !
 ! A148  A(48,49,50)           120.4637         estimate D2E/DX2                !
 ! A149  A(48,49,124)          120.0615         estimate D2E/DX2                !
 ! A150  A(50,49,124)          119.464          estimate D2E/DX2                !
 ! A151  A(49,50,51)           120.2182         estimate D2E/DX2                !
 ! A152  A(49,50,123)          119.3405         estimate D2E/DX2                !
 ! A153  A(51,50,123)          120.441          estimate D2E/DX2                !
 ! A154  A(50,51,52)           119.5023         estimate D2E/DX2                !
 ! A155  A(50,51,122)          120.616          estimate D2E/DX2                !
 ! A156  A(52,51,122)          119.8766         estimate D2E/DX2                !
 ! A157  A(35,52,51)           121.4404         estimate D2E/DX2                !
 ! A158  A(35,52,121)          118.1734         estimate D2E/DX2                !
 ! A159  A(51,52,121)          120.3841         estimate D2E/DX2                !
 ! A160  A(37,53,54)           119.7644         estimate D2E/DX2                !
 ! A161  A(37,53,117)          116.311          estimate D2E/DX2                !
 ! A162  A(54,53,117)          123.9221         estimate D2E/DX2                !
 ! A163  A(53,54,55)           120.5776         estimate D2E/DX2                !
 ! A164  A(53,54,116)          119.975          estimate D2E/DX2                !
 ! A165  A(55,54,116)          119.4296         estimate D2E/DX2                !
 ! A166  A(54,55,56)           120.0434         estimate D2E/DX2                !
 ! A167  A(54,55,118)          119.4311         estimate D2E/DX2                !
 ! A168  A(56,55,118)          120.5229         estimate D2E/DX2                !
 ! A169  A(55,56,57)           119.5208         estimate D2E/DX2                !
 ! A170  A(55,56,119)          120.4705         estimate D2E/DX2                !
 ! A171  A(57,56,119)          120.0085         estimate D2E/DX2                !
 ! A172  A(37,57,56)           121.6804         estimate D2E/DX2                !
 ! A173  A(37,57,120)          117.8576         estimate D2E/DX2                !
 ! A174  A(56,57,120)          120.4537         estimate D2E/DX2                !
 ! A175  A(31,58,59)           121.2913         estimate D2E/DX2                !
 ! A176  A(31,58,110)          118.3648         estimate D2E/DX2                !
 ! A177  A(59,58,110)          120.306          estimate D2E/DX2                !
 ! A178  A(58,59,60)           119.9056         estimate D2E/DX2                !
 ! A179  A(58,59,109)          119.4526         estimate D2E/DX2                !
 ! A180  A(60,59,109)          120.6136         estimate D2E/DX2                !
 ! A181  A(59,60,61)           119.5538         estimate D2E/DX2                !
 ! A182  A(59,60,108)          120.5383         estimate D2E/DX2                !
 ! A183  A(61,60,108)          119.9064         estimate D2E/DX2                !
 ! A184  A(60,61,62)           121.0366         estimate D2E/DX2                !
 ! A185  A(60,61,106)          121.3097         estimate D2E/DX2                !
 ! A186  A(62,61,106)          117.6527         estimate D2E/DX2                !
 ! A187  A(31,62,61)           119.6326         estimate D2E/DX2                !
 ! A188  A(31,62,107)          123.2117         estimate D2E/DX2                !
 ! A189  A(61,62,107)          117.0225         estimate D2E/DX2                !
 ! A190  A(33,63,64)           119.7745         estimate D2E/DX2                !
 ! A191  A(33,63,103)          116.2261         estimate D2E/DX2                !
 ! A192  A(64,63,103)          123.998          estimate D2E/DX2                !
 ! A193  A(63,64,65)           120.5711         estimate D2E/DX2                !
 ! A194  A(63,64,102)          119.8712         estimate D2E/DX2                !
 ! A195  A(65,64,102)          119.543          estimate D2E/DX2                !
 ! A196  A(64,65,66)           120.0288         estimate D2E/DX2                !
 ! A197  A(64,65,128)          119.4274         estimate D2E/DX2                !
 ! A198  A(66,65,128)          120.543          estimate D2E/DX2                !
 ! A199  A(65,66,67)           119.6256         estimate D2E/DX2                !
 ! A200  A(65,66,104)          120.5973         estimate D2E/DX2                !
 ! A201  A(67,66,104)          119.773          estimate D2E/DX2                !
 ! A202  A(33,67,66)           121.5259         estimate D2E/DX2                !
 ! A203  A(33,67,105)          118.4268         estimate D2E/DX2                !
 ! A204  A(66,67,105)          120.0472         estimate D2E/DX2                !
 ! A205  A(32,68,69)           119.6336         estimate D2E/DX2                !
 ! A206  A(32,68,101)          115.9425         estimate D2E/DX2                !
 ! A207  A(69,68,101)          124.4108         estimate D2E/DX2                !
 ! A208  A(68,69,70)           120.4196         estimate D2E/DX2                !
 ! A209  A(68,69,100)          119.9202         estimate D2E/DX2                !
 ! A210  A(70,69,100)          119.6448         estimate D2E/DX2                !
 ! A211  A(69,70,71)           120.2295         estimate D2E/DX2                !
 ! A212  A(69,70,129)          119.3411         estimate D2E/DX2                !
 ! A213  A(71,70,129)          120.428          estimate D2E/DX2                !
 ! A214  A(70,71,72)           119.5422         estimate D2E/DX2                !
 ! A215  A(70,71,99)           120.5333         estimate D2E/DX2                !
 ! A216  A(72,71,99)           119.9229         estimate D2E/DX2                !
 ! A217  A(32,72,71)           121.2953         estimate D2E/DX2                !
 ! A218  A(32,72,98)           118.3439         estimate D2E/DX2                !
 ! A219  A(71,72,98)           120.3579         estimate D2E/DX2                !
 ! A220  A(30,73,74)           121.4868         estimate D2E/DX2                !
 ! A221  A(30,73,111)          118.4362         estimate D2E/DX2                !
 ! A222  A(74,73,111)          120.0736         estimate D2E/DX2                !
 ! A223  A(73,74,75)           120.1827         estimate D2E/DX2                !
 ! A224  A(73,74,112)          119.3873         estimate D2E/DX2                !
 ! A225  A(75,74,112)          120.4189         estimate D2E/DX2                !
 ! A226  A(74,75,76)           119.1864         estimate D2E/DX2                !
 ! A227  A(74,75,113)          120.7323         estimate D2E/DX2                !
 ! A228  A(76,75,113)          120.0792         estimate D2E/DX2                !
 ! A229  A(75,76,77)           121.1668         estimate D2E/DX2                !
 ! A230  A(75,76,114)          121.2849         estimate D2E/DX2                !
 ! A231  A(77,76,114)          117.5409         estimate D2E/DX2                !
 ! A232  A(30,77,76)           120.0452         estimate D2E/DX2                !
 ! A233  A(30,77,115)          122.0865         estimate D2E/DX2                !
 ! A234  A(76,77,115)          117.8007         estimate D2E/DX2                !
 ! A235  A(42,91,137)          116.3527         estimate D2E/DX2                !
 ! A236  A(47,97,135)          117.5435         estimate D2E/DX2                !
 ! A237  A(68,101,131)         118.0564         estimate D2E/DX2                !
 ! A238  A(63,103,133)         117.9373         estimate D2E/DX2                !
 ! A239  A(62,107,132)         116.1956         estimate D2E/DX2                !
 ! A240  A(77,115,130)         114.5998         estimate D2E/DX2                !
 ! A241  A(53,117,136)         117.9899         estimate D2E/DX2                !
 ! A242  A(48,125,134)         117.8663         estimate D2E/DX2                !
 ! A243  A(115,130,138)        110.4212         estimate D2E/DX2                !
 ! A244  A(115,130,139)        106.0734         estimate D2E/DX2                !
 ! A245  A(115,130,140)        111.7287         estimate D2E/DX2                !
 ! A246  A(138,130,139)        109.4061         estimate D2E/DX2                !
 ! A247  A(138,130,140)        109.7786         estimate D2E/DX2                !
 ! A248  A(139,130,140)        109.3463         estimate D2E/DX2                !
 ! A249  A(101,131,141)        105.6212         estimate D2E/DX2                !
 ! A250  A(101,131,142)        111.3463         estimate D2E/DX2                !
 ! A251  A(101,131,143)        111.5914         estimate D2E/DX2                !
 ! A252  A(141,131,142)        109.3359         estimate D2E/DX2                !
 ! A253  A(141,131,143)        109.3495         estimate D2E/DX2                !
 ! A254  A(142,131,143)        109.4999         estimate D2E/DX2                !
 ! A255  A(107,132,144)        105.6642         estimate D2E/DX2                !
 ! A256  A(107,132,145)        112.1372         estimate D2E/DX2                !
 ! A257  A(107,132,146)        110.2554         estimate D2E/DX2                !
 ! A258  A(144,132,145)        109.516          estimate D2E/DX2                !
 ! A259  A(144,132,146)        109.2844         estimate D2E/DX2                !
 ! A260  A(145,132,146)        109.8737         estimate D2E/DX2                !
 ! A261  A(103,133,147)        105.9076         estimate D2E/DX2                !
 ! A262  A(103,133,148)        111.4941         estimate D2E/DX2                !
 ! A263  A(103,133,149)        111.304          estimate D2E/DX2                !
 ! A264  A(147,133,148)        109.6045         estimate D2E/DX2                !
 ! A265  A(147,133,149)        109.1593         estimate D2E/DX2                !
 ! A266  A(148,133,149)        109.2945         estimate D2E/DX2                !
 ! A267  A(125,134,150)        105.713          estimate D2E/DX2                !
 ! A268  A(125,134,151)        111.5588         estimate D2E/DX2                !
 ! A269  A(125,134,152)        111.4714         estimate D2E/DX2                !
 ! A270  A(150,134,151)        109.3707         estimate D2E/DX2                !
 ! A271  A(150,134,152)        109.3371         estimate D2E/DX2                !
 ! A272  A(151,134,152)        109.304          estimate D2E/DX2                !
 ! A273  A(97,135,153)         105.7198         estimate D2E/DX2                !
 ! A274  A(97,135,154)         111.4187         estimate D2E/DX2                !
 ! A275  A(97,135,155)         111.5958         estimate D2E/DX2                !
 ! A276  A(153,135,154)        109.2106         estimate D2E/DX2                !
 ! A277  A(153,135,155)        109.476          estimate D2E/DX2                !
 ! A278  A(154,135,155)        109.3323         estimate D2E/DX2                !
 ! A279  A(117,136,156)        105.7084         estimate D2E/DX2                !
 ! A280  A(117,136,157)        111.5722         estimate D2E/DX2                !
 ! A281  A(117,136,158)        111.4067         estimate D2E/DX2                !
 ! A282  A(156,136,157)        109.4603         estimate D2E/DX2                !
 ! A283  A(156,136,158)        109.3486         estimate D2E/DX2                !
 ! A284  A(157,136,158)        109.2639         estimate D2E/DX2                !
 ! A285  A(91,137,159)         110.3185         estimate D2E/DX2                !
 ! A286  A(91,137,160)         105.8908         estimate D2E/DX2                !
 ! A287  A(91,137,161)         112.0353         estimate D2E/DX2                !
 ! A288  A(159,137,160)        109.5345         estimate D2E/DX2                !
 ! A289  A(159,137,161)        109.2441         estimate D2E/DX2                !
 ! A290  A(160,137,161)        109.755          estimate D2E/DX2                !
 ! D1    D(5,1,2,3)             -6.208          estimate D2E/DX2                !
 ! D2    D(5,1,2,18)           178.2808         estimate D2E/DX2                !
 ! D3    D(6,1,2,3)            112.4081         estimate D2E/DX2                !
 ! D4    D(6,1,2,18)           -63.1031         estimate D2E/DX2                !
 ! D5    D(9,1,2,3)           -128.2346         estimate D2E/DX2                !
 ! D6    D(9,1,2,18)            56.2542         estimate D2E/DX2                !
 ! D7    D(2,1,5,4)              5.604          estimate D2E/DX2                !
 ! D8    D(2,1,5,17)          -172.0745         estimate D2E/DX2                !
 ! D9    D(6,1,5,4)           -114.6202         estimate D2E/DX2                !
 ! D10   D(6,1,5,17)            67.7013         estimate D2E/DX2                !
 ! D11   D(9,1,5,4)            133.5308         estimate D2E/DX2                !
 ! D12   D(9,1,5,17)           -44.1477         estimate D2E/DX2                !
 ! D13   D(2,1,6,7)            134.9006         estimate D2E/DX2                !
 ! D14   D(2,1,6,10)           -44.7345         estimate D2E/DX2                !
 ! D15   D(5,1,6,7)           -112.1384         estimate D2E/DX2                !
 ! D16   D(5,1,6,10)            68.2265         estimate D2E/DX2                !
 ! D17   D(9,1,6,7)              5.5693         estimate D2E/DX2                !
 ! D18   D(9,1,6,10)          -174.0659         estimate D2E/DX2                !
 ! D19   D(2,1,9,8)           -131.8552         estimate D2E/DX2                !
 ! D20   D(2,1,9,25)            55.6543         estimate D2E/DX2                !
 ! D21   D(5,1,9,8)            110.9294         estimate D2E/DX2                !
 ! D22   D(5,1,9,25)           -61.5611         estimate D2E/DX2                !
 ! D23   D(6,1,9,8)             -6.7736         estimate D2E/DX2                !
 ! D24   D(6,1,9,25)          -179.2641         estimate D2E/DX2                !
 ! D25   D(1,2,3,4)              4.7776         estimate D2E/DX2                !
 ! D26   D(1,2,3,21)          -175.7713         estimate D2E/DX2                !
 ! D27   D(18,2,3,4)          -179.3003         estimate D2E/DX2                !
 ! D28   D(18,2,3,21)            0.1508         estimate D2E/DX2                !
 ! D29   D(1,2,18,19)          174.5997         estimate D2E/DX2                !
 ! D30   D(1,2,18,79)           -3.8629         estimate D2E/DX2                !
 ! D31   D(3,2,18,19)           -0.4856         estimate D2E/DX2                !
 ! D32   D(3,2,18,79)         -178.9482         estimate D2E/DX2                !
 ! D33   D(2,3,4,5)             -1.0186         estimate D2E/DX2                !
 ! D34   D(2,3,4,14)           176.4135         estimate D2E/DX2                !
 ! D35   D(21,3,4,5)           179.6157         estimate D2E/DX2                !
 ! D36   D(21,3,4,14)           -2.9521         estimate D2E/DX2                !
 ! D37   D(2,3,21,20)           -0.0227         estimate D2E/DX2                !
 ! D38   D(2,3,21,81)         -179.4595         estimate D2E/DX2                !
 ! D39   D(4,3,21,20)          179.2871         estimate D2E/DX2                !
 ! D40   D(4,3,21,81)           -0.1498         estimate D2E/DX2                !
 ! D41   D(3,4,5,1)             -3.1296         estimate D2E/DX2                !
 ! D42   D(3,4,5,17)           174.7193         estimate D2E/DX2                !
 ! D43   D(14,4,5,1)           179.0497         estimate D2E/DX2                !
 ! D44   D(14,4,5,17)           -3.1014         estimate D2E/DX2                !
 ! D45   D(3,4,14,15)         -175.5493         estimate D2E/DX2                !
 ! D46   D(3,4,14,82)            3.664          estimate D2E/DX2                !
 ! D47   D(5,4,14,15)            1.667          estimate D2E/DX2                !
 ! D48   D(5,4,14,82)         -179.1197         estimate D2E/DX2                !
 ! D49   D(1,5,17,16)          178.9104         estimate D2E/DX2                !
 ! D50   D(1,5,17,88)           -0.0031         estimate D2E/DX2                !
 ! D51   D(4,5,17,16)            1.4664         estimate D2E/DX2                !
 ! D52   D(4,5,17,88)         -177.4471         estimate D2E/DX2                !
 ! D53   D(1,6,7,8)             -2.5517         estimate D2E/DX2                !
 ! D54   D(1,6,7,13)           178.0027         estimate D2E/DX2                !
 ! D55   D(10,6,7,8)           177.1132         estimate D2E/DX2                !
 ! D56   D(10,6,7,13)           -2.3323         estimate D2E/DX2                !
 ! D57   D(1,6,10,11)         -179.5742         estimate D2E/DX2                !
 ! D58   D(1,6,10,89)            1.8151         estimate D2E/DX2                !
 ! D59   D(7,6,10,11)            0.8279         estimate D2E/DX2                !
 ! D60   D(7,6,10,89)         -177.7828         estimate D2E/DX2                !
 ! D61   D(6,7,8,9)             -1.953          estimate D2E/DX2                !
 ! D62   D(6,7,8,22)           176.3086         estimate D2E/DX2                !
 ! D63   D(13,7,8,9)           177.3995         estimate D2E/DX2                !
 ! D64   D(13,7,8,22)           -4.3389         estimate D2E/DX2                !
 ! D65   D(6,7,13,12)            1.3682         estimate D2E/DX2                !
 ! D66   D(6,7,13,86)         -178.4846         estimate D2E/DX2                !
 ! D67   D(8,7,13,12)         -177.9296         estimate D2E/DX2                !
 ! D68   D(8,7,13,86)            2.2176         estimate D2E/DX2                !
 ! D69   D(7,8,9,1)              5.7016         estimate D2E/DX2                !
 ! D70   D(7,8,9,25)           178.8537         estimate D2E/DX2                !
 ! D71   D(22,8,9,1)          -172.792          estimate D2E/DX2                !
 ! D72   D(22,8,9,25)            0.3601         estimate D2E/DX2                !
 ! D73   D(7,8,22,23)         -177.8175         estimate D2E/DX2                !
 ! D74   D(7,8,22,84)            1.9149         estimate D2E/DX2                !
 ! D75   D(9,8,22,23)            0.2886         estimate D2E/DX2                !
 ! D76   D(9,8,22,84)         -179.979          estimate D2E/DX2                !
 ! D77   D(1,9,25,24)          170.856          estimate D2E/DX2                !
 ! D78   D(1,9,25,78)           -6.9758         estimate D2E/DX2                !
 ! D79   D(8,9,25,24)           -0.9141         estimate D2E/DX2                !
 ! D80   D(8,9,25,78)         -178.7459         estimate D2E/DX2                !
 ! D81   D(6,10,11,12)           1.5853         estimate D2E/DX2                !
 ! D82   D(6,10,11,26)        -177.6834         estimate D2E/DX2                !
 ! D83   D(89,10,11,12)       -179.7937         estimate D2E/DX2                !
 ! D84   D(89,10,11,26)          0.9376         estimate D2E/DX2                !
 ! D85   D(10,11,12,13)         -2.5484         estimate D2E/DX2                !
 ! D86   D(10,11,12,87)        178.329          estimate D2E/DX2                !
 ! D87   D(26,11,12,13)        176.7368         estimate D2E/DX2                !
 ! D88   D(26,11,12,87)         -2.3858         estimate D2E/DX2                !
 ! D89   D(10,11,26,34)        -20.3247         estimate D2E/DX2                !
 ! D90   D(10,11,26,35)        143.8415         estimate D2E/DX2                !
 ! D91   D(12,11,26,34)        160.4073         estimate D2E/DX2                !
 ! D92   D(12,11,26,35)        -35.4265         estimate D2E/DX2                !
 ! D93   D(11,12,13,7)           1.0512         estimate D2E/DX2                !
 ! D94   D(11,12,13,86)       -179.0942         estimate D2E/DX2                !
 ! D95   D(87,12,13,7)        -179.8336         estimate D2E/DX2                !
 ! D96   D(87,12,13,86)          0.021          estimate D2E/DX2                !
 ! D97   D(4,14,15,16)           1.3318         estimate D2E/DX2                !
 ! D98   D(4,14,15,83)         179.4539         estimate D2E/DX2                !
 ! D99   D(82,14,15,16)       -177.8931         estimate D2E/DX2                !
 ! D100  D(82,14,15,83)          0.229          estimate D2E/DX2                !
 ! D101  D(14,15,16,17)         -2.9616         estimate D2E/DX2                !
 ! D102  D(14,15,16,27)        175.3836         estimate D2E/DX2                !
 ! D103  D(83,15,16,17)        178.907          estimate D2E/DX2                !
 ! D104  D(83,15,16,27)         -2.7478         estimate D2E/DX2                !
 ! D105  D(15,16,17,5)           1.546          estimate D2E/DX2                !
 ! D106  D(15,16,17,88)       -179.5346         estimate D2E/DX2                !
 ! D107  D(27,16,17,5)        -176.8142         estimate D2E/DX2                !
 ! D108  D(27,16,17,88)          2.1052         estimate D2E/DX2                !
 ! D109  D(15,16,27,36)        -19.4947         estimate D2E/DX2                !
 ! D110  D(15,16,27,37)        144.7797         estimate D2E/DX2                !
 ! D111  D(17,16,27,36)        158.8366         estimate D2E/DX2                !
 ! D112  D(17,16,27,37)        -36.8889         estimate D2E/DX2                !
 ! D113  D(2,18,19,20)           0.6926         estimate D2E/DX2                !
 ! D114  D(2,18,19,28)        -177.7977         estimate D2E/DX2                !
 ! D115  D(79,18,19,20)        179.1766         estimate D2E/DX2                !
 ! D116  D(79,18,19,28)          0.6863         estimate D2E/DX2                !
 ! D117  D(18,19,20,21)         -0.577          estimate D2E/DX2                !
 ! D118  D(18,19,20,80)        179.4352         estimate D2E/DX2                !
 ! D119  D(28,19,20,21)        177.9053         estimate D2E/DX2                !
 ! D120  D(28,19,20,80)         -2.0825         estimate D2E/DX2                !
 ! D121  D(18,19,28,31)        -53.5239         estimate D2E/DX2                !
 ! D122  D(18,19,28,33)        150.4442         estimate D2E/DX2                !
 ! D123  D(20,19,28,31)        127.9976         estimate D2E/DX2                !
 ! D124  D(20,19,28,33)        -28.0344         estimate D2E/DX2                !
 ! D125  D(19,20,21,3)           0.2395         estimate D2E/DX2                !
 ! D126  D(19,20,21,81)        179.6824         estimate D2E/DX2                !
 ! D127  D(80,20,21,3)        -179.7728         estimate D2E/DX2                !
 ! D128  D(80,20,21,81)         -0.3299         estimate D2E/DX2                !
 ! D129  D(8,22,23,24)          -0.3709         estimate D2E/DX2                !
 ! D130  D(8,22,23,85)         179.6068         estimate D2E/DX2                !
 ! D131  D(84,22,23,24)        179.8944         estimate D2E/DX2                !
 ! D132  D(84,22,23,85)         -0.128          estimate D2E/DX2                !
 ! D133  D(22,23,24,25)         -0.1886         estimate D2E/DX2                !
 ! D134  D(22,23,24,29)        178.5016         estimate D2E/DX2                !
 ! D135  D(85,23,24,25)        179.8334         estimate D2E/DX2                !
 ! D136  D(85,23,24,29)         -1.4764         estimate D2E/DX2                !
 ! D137  D(23,24,25,9)           0.826          estimate D2E/DX2                !
 ! D138  D(23,24,25,78)        178.6905         estimate D2E/DX2                !
 ! D139  D(29,24,25,9)        -177.84           estimate D2E/DX2                !
 ! D140  D(29,24,25,78)          0.0244         estimate D2E/DX2                !
 ! D141  D(23,24,29,30)        -57.7402         estimate D2E/DX2                !
 ! D142  D(23,24,29,32)        142.1249         estimate D2E/DX2                !
 ! D143  D(25,24,29,30)        120.9355         estimate D2E/DX2                !
 ! D144  D(25,24,29,32)        -39.1994         estimate D2E/DX2                !
 ! D145  D(11,26,34,43)        124.6792         estimate D2E/DX2                !
 ! D146  D(11,26,34,47)        -58.939          estimate D2E/DX2                !
 ! D147  D(35,26,34,43)        -39.8232         estimate D2E/DX2                !
 ! D148  D(35,26,34,47)        136.5586         estimate D2E/DX2                !
 ! D149  D(11,26,35,48)        134.8755         estimate D2E/DX2                !
 ! D150  D(11,26,35,52)        -45.1634         estimate D2E/DX2                !
 ! D151  D(34,26,35,48)        -60.2437         estimate D2E/DX2                !
 ! D152  D(34,26,35,52)        119.7174         estimate D2E/DX2                !
 ! D153  D(16,27,36,38)        126.8724         estimate D2E/DX2                !
 ! D154  D(16,27,36,42)        -53.5679         estimate D2E/DX2                !
 ! D155  D(37,27,36,38)        -37.6865         estimate D2E/DX2                !
 ! D156  D(37,27,36,42)        141.8731         estimate D2E/DX2                !
 ! D157  D(16,27,37,53)        138.4348         estimate D2E/DX2                !
 ! D158  D(16,27,37,57)        -41.0327         estimate D2E/DX2                !
 ! D159  D(36,27,37,53)        -56.8891         estimate D2E/DX2                !
 ! D160  D(36,27,37,57)        123.6434         estimate D2E/DX2                !
 ! D161  D(19,28,31,58)        -42.4136         estimate D2E/DX2                !
 ! D162  D(19,28,31,62)        141.5118         estimate D2E/DX2                !
[...]
 Alpha virt. eigenvalues --    2.33602   2.34148   2.34687   2.35180   2.35586
 Alpha virt. eigenvalues --    2.36466   2.36549   2.36852   2.37789   2.38703
 Alpha virt. eigenvalues --    2.39253   2.39308   2.39412   2.39903   2.39952
 Alpha virt. eigenvalues --    2.40588   2.40723   2.41478   2.41860   2.41938
 Alpha virt. eigenvalues --    2.42665   2.43668   2.43968   2.44052   2.44562
 Alpha virt. eigenvalues --    2.45734   2.46732   2.46893   2.47041   2.48364
 Alpha virt. eigenvalues --    2.49129   2.49916   2.50270   2.50641   2.50947
 Alpha virt. eigenvalues --    2.52100   2.52192   2.52295   2.52790   2.53738
 Alpha virt. eigenvalues --    2.54197   2.55002   2.55597   2.56216   2.56416
 Alpha virt. eigenvalues --    2.56710   2.57053   2.57294   2.57521   2.57992
 Alpha virt. eigenvalues --    2.58299   2.58480   2.58850   2.59147   2.59611
 Alpha virt. eigenvalues --    2.60007   2.60097   2.60354   2.60927   2.61578
 Alpha virt. eigenvalues --    2.61840   2.62087   2.63109   2.63281   2.63589
 Alpha virt. eigenvalues --    2.63733   2.64162   2.64488   2.64896   2.65413
 Alpha virt. eigenvalues --    2.65500   2.65756   2.66239   2.66374   2.66696
 Alpha virt. eigenvalues --    2.66814   2.67237   2.67351   2.67446   2.67662
 Alpha virt. eigenvalues --    2.68051   2.69145   2.69325   2.70029   2.70246
 Alpha virt. eigenvalues --    2.70560   2.70784   2.70891   2.71087   2.71425
 Alpha virt. eigenvalues --    2.71597   2.72321   2.72966   2.73122   2.73316
 Alpha virt. eigenvalues --    2.73719   2.74005   2.74093   2.74423   2.74604
 Alpha virt. eigenvalues --    2.74901   2.75713   2.75929   2.76120   2.76174
 Alpha virt. eigenvalues --    2.76527   2.76573   2.77028   2.77187   2.77489
 Alpha virt. eigenvalues --    2.77893   2.78356   2.78813   2.79284   2.79850
 Alpha virt. eigenvalues --    2.80697   2.82036   2.82639   2.83044   2.83380
 Alpha virt. eigenvalues --    2.83828   2.83862   2.84199   2.85134   2.85209
 Alpha virt. eigenvalues --    2.85880   2.86085   2.86431   2.86554   2.86865
 Alpha virt. eigenvalues --    2.87352   2.87573   2.87948   2.88915   2.89363
 Alpha virt. eigenvalues --    2.89578   2.89706   2.90342   2.91103   2.91697
 Alpha virt. eigenvalues --    2.92526   2.93651   2.95730   2.96597   2.96908
 Alpha virt. eigenvalues --    2.97667   2.98471   2.98812   2.99680   3.00282
 Alpha virt. eigenvalues --    3.01443   3.02044   3.02373   3.02676   3.03499
 Alpha virt. eigenvalues --    3.04739   3.05484   3.05790   3.06076   3.06931
 Alpha virt. eigenvalues --    3.07195   3.07923   3.09166   3.10189   3.11157
 Alpha virt. eigenvalues --    3.12449   3.13576   3.17357   3.21814   3.23084
 Alpha virt. eigenvalues --    3.25868   3.26749   3.27231   3.27501   3.28664
 Alpha virt. eigenvalues --    3.29599   3.33408   3.34220   3.37816   3.39264
 Alpha virt. eigenvalues --    3.43314   3.43364   3.43644   3.43734   3.44346
 Alpha virt. eigenvalues --    3.44476   3.44995   3.45121   3.53226   3.53853
 Alpha virt. eigenvalues --    4.06536   4.06742   4.07075   4.07401   4.08082
 Alpha virt. eigenvalues --    4.08329   4.08538   4.08881   4.09775   4.10102
 Alpha virt. eigenvalues --    4.10386   4.10577   4.10692   4.10804   4.10919
 Alpha virt. eigenvalues --    4.11052   4.11165   4.11515   4.14534   4.14789
 Alpha virt. eigenvalues --    4.15745   4.16260   4.16398   4.16814   4.16987
 Alpha virt. eigenvalues --    4.17302   4.17402   4.17709   4.18196   4.18641
 Alpha virt. eigenvalues --    4.18820   4.19273   4.20039   4.21784   4.22040
 Alpha virt. eigenvalues --    4.22199   4.22677   4.22725   4.23831   4.24190
 Alpha virt. eigenvalues --    4.24742   4.25280   4.25388   4.25604   4.27998
 Alpha virt. eigenvalues --    4.28014   4.29174   4.30371   4.33011   4.33389
 Alpha virt. eigenvalues --    4.34289   4.35692   4.36690   4.37246   4.38195
 Alpha virt. eigenvalues --    4.38727   4.39137   4.39975   4.40609   4.40953
 Alpha virt. eigenvalues --    4.42006   4.42087   4.42431   4.42832   4.42849
 Alpha virt. eigenvalues --    4.43515   4.43624   4.43990   4.47207   4.50612
 Alpha virt. eigenvalues --    4.51091   4.51496   4.52294   4.53493   4.54487
 Alpha virt. eigenvalues --    4.55484   4.57307   4.57889   4.59104   4.59851
 Alpha virt. eigenvalues --    4.65935   4.78610   4.83841   4.83876   4.84911
 Alpha virt. eigenvalues --    4.85453   4.86155   4.87031   4.88744   4.92279
 Alpha virt. eigenvalues --    4.92538   4.93706   4.94406
          Condensed to atoms (all electrons):
 Mulliken atomic charges:
              1
     1  C   -0.273977
     2  C    0.112383
     3  C    0.072379
     4  C    0.076865
     5  C    0.129601
     6  C    0.126745
     7  C    0.070726
     8  C    0.076602
     9  C    0.111506
    10  C   -0.261005
    11  C    0.352313
    12  C   -0.184609
    13  C   -0.202267
    14  C   -0.205139
    15  C   -0.182309
    16  C    0.326518
    17  C   -0.254218
    18  C   -0.236373
    19  C    0.328457
    20  C   -0.192456
    21  C   -0.207697
    22  C   -0.209283
    23  C   -0.146780
    24  C    0.278490
    25  C   -0.237431
    26  N   -0.641056
    27  N   -0.663125
    28  N   -0.653534
    29  N   -0.649095
    30  C    0.271976
    31  C    0.222648
    32  C    0.241224
    33  C    0.242329
    34  C    0.239030
    35  C    0.186329
    36  C    0.277100
    37  C    0.207687
    38  C   -0.187797
    39  C   -0.138464
    40  C   -0.138361
    41  C   -0.175560
    42  C    0.336308
    43  C   -0.176189
    44  C   -0.148996
    45  C   -0.132065
    46  C   -0.210405
    47  C    0.385976
    48  C    0.369051
    49  C   -0.209110
    50  C   -0.132610
    51  C   -0.145126
    52  C   -0.162882
    53  C    0.367871
    54  C   -0.205551
    55  C   -0.133635
    56  C   -0.148098
    57  C   -0.168493
    58  C   -0.180431
    59  C   -0.142679
    60  C   -0.141599
    61  C   -0.174871
    62  C    0.338167
    63  C    0.376573
    64  C   -0.206273
    65  C   -0.133732
    66  C   -0.140924
    67  C   -0.173696
    68  C    0.371264
    69  C   -0.208771
    70  C   -0.135107
    71  C   -0.140218
    72  C   -0.169300
    73  C   -0.205221
    74  C   -0.144706
    75  C   -0.140956
    76  C   -0.171379
    77  C    0.322287
    78  H    0.148200
    79  H    0.140381
    80  H    0.138088
    81  H    0.126003
    82  H    0.125561
    83  H    0.139003
    84  H    0.125436
    85  H    0.130902
    86  H    0.124326
    87  H    0.137131
    88  H    0.149910
    89  H    0.147195
    90  H    0.134045
    91  O   -0.526415
    92  H    0.141535
    93  H    0.123243
    94  H    0.124353
    95  H    0.139482
    96  H    0.134004
    97  O   -0.498662
    98  H    0.140805
    99  H    0.126130
   100  H    0.131081
   101  O   -0.512848
   102  H    0.130535
   103  O   -0.510735
   104  H    0.125113
   105  H    0.143651
   106  H    0.134644
   107  O   -0.525792
   108  H    0.124360
   109  H    0.131702
   110  H    0.152828
   111  H    0.152479
   112  H    0.123917
   113  H    0.121406
   114  H    0.131375
   115  O   -0.525690
   116  H    0.133815
   117  O   -0.510359
   118  H    0.128730
   119  H    0.130920
   120  H    0.146744
   121  H    0.145431
   122  H    0.127937
   123  H    0.128191
   124  H    0.132567
   125  O   -0.501360
   126  H    0.125716
   127  H    0.126808
   128  H    0.124605
   129  H    0.124699
   130  C   -0.218896
   131  C   -0.226099
   132  C   -0.225198
   133  C   -0.228060
   134  C   -0.213898
   135  C   -0.227259
   136  C   -0.218599
   137  C   -0.216601
   138  H    0.133413
   139  H    0.154597
   140  H    0.173518
   141  H    0.168610
   142  H    0.144659
   143  H    0.167124
   144  H    0.154228
   145  H    0.186650
   146  H    0.135885
   147  H    0.186495
   148  H    0.144812
   149  H    0.151443
   150  H    0.170098
   151  H    0.150923
   152  H    0.152995
   153  H    0.178277
   154  H    0.147819
   155  H    0.161420
   156  H    0.173764
   157  H    0.155146
   158  H    0.155966
   159  H    0.132552
   160  H    0.163703
   161  H    0.172542
 Sum of Mulliken atomic charges =   0.00000
 Mulliken charges with hydrogens summed into heavy atoms:
              1
     1  C   -0.273977
     2  C    0.112383
     3  C    0.072379
     4  C    0.076865
     5  C    0.129601
     6  C    0.126745
     7  C    0.070726
     8  C    0.076602
     9  C    0.111506
    10  C   -0.113811
    11  C    0.352313
    12  C   -0.047478
    13  C   -0.077941
    14  C   -0.079578
    15  C   -0.043305
    16  C    0.326518
    17  C   -0.104308
    18  C   -0.095992
    19  C    0.328457
    20  C   -0.054369
    21  C   -0.081694
    22  C   -0.083847
    23  C   -0.015878
    24  C    0.278490
    25  C   -0.089231
    26  N   -0.641056
    27  N   -0.663125
    28  N   -0.653534
    29  N   -0.649095
    30  C    0.271976
    31  C    0.222648
    32  C    0.241224
    33  C    0.242329
    34  C    0.239030
    35  C    0.186329
    36  C    0.277100
    37  C    0.207687
    38  C   -0.048314
    39  C   -0.014111
    40  C   -0.012645
    41  C   -0.041515
    42  C    0.336308
    43  C   -0.034654
    44  C   -0.025753
    45  C   -0.005257
    46  C   -0.076401
    47  C    0.385976
    48  C    0.369051
    49  C   -0.076543
    50  C   -0.004419
    51  C   -0.017190
    52  C   -0.017451
    53  C    0.367871
    54  C   -0.071736
    55  C   -0.004905
    56  C   -0.017178
    57  C   -0.021750
    58  C   -0.027602
    59  C   -0.010977
    60  C   -0.017239
    61  C   -0.040227
    62  C    0.338167
    63  C    0.376573
    64  C   -0.075738
    65  C   -0.009126
    66  C   -0.015811
    67  C   -0.030045
    68  C    0.371264
    69  C   -0.077690
    70  C   -0.010408
    71  C   -0.014088
    72  C   -0.028495
    73  C   -0.052743
    74  C   -0.020789
    75  C   -0.019549
    76  C   -0.040005
    77  C    0.322287
    91  O   -0.526415
    97  O   -0.498662
   101  O   -0.512848
   103  O   -0.510735
   107  O   -0.525792
   115  O   -0.525690
   117  O   -0.510359
   125  O   -0.501360
   130  C    0.242632
   131  C    0.254294
   132  C    0.251564
   133  C    0.254690
   134  C    0.260118
   135  C    0.260257
   136  C    0.266277
   137  C    0.252197
 Sum of Mulliken charges with hydrogens summed into heavy atoms =   0.00000
 Electronic spatial extent (au):  <R**2>=          90207.2723
 Charge=              0.0000 electrons
 Dipole moment (field-independent basis, Debye):
    X=             -1.5085    Y=             -5.3034    Z=             -2.6161  Tot=              6.1030
 Quadrupole moment (field-independent basis, Debye-Ang):
   XX=           -492.4822   YY=           -480.2939   ZZ=           -503.2217
   XY=              5.6974   XZ=             -6.8408   YZ=             -2.6314
 Traceless Quadrupole moment (field-independent basis, Debye-Ang):
   XX=             -0.4829   YY=             11.7054   ZZ=            -11.2224
   XY=              5.6974   XZ=             -6.8408   YZ=             -2.6314
 Octapole moment (field-independent basis, Debye-Ang**2):
  XXX=             35.0401  YYY=           -189.1817  ZZZ=            -59.8736  XYY=            -57.5164
  XXY=           -319.9904  XXZ=            -48.7416  XZZ=            -62.0791  YZZ=             -0.3425
  YYZ=           -116.0518  XYZ=            -21.5188
 Hexadecapole moment (field-independent basis, Debye-Ang**3):
 XXXX=         -55978.1142 YYYY=         -42978.8807 ZZZZ=         -16600.3928 XXXY=            -72.2387
 XXXZ=           -252.4537 YYYX=            847.0536 YYYZ=            -34.0222 ZZZX=             16.8699
 ZZZY=           -136.5215 XXYY=         -17144.4390 XXZZ=         -11602.6689 YYZZ=          -9658.3510
 XXYZ=            390.9065 YYXZ=            266.2386 ZZXY=            205.4945
 N-N= 1.744305333174D+04 E-N=-4.406089490257D+04  KE= 3.911014361037D+03
 Leave Link  601 at Thu Aug  7 13:17:38 2014, MaxMem= 2147483648 cpu:      54.0
 (Enter /opt/g09/l9999.exe)
 1\1\GINC-CHPC-SCANDIUM\FOpt\RB3LYP\6-31G(d)\C81H68N4O8\JARVIST\07-Aug-
 2014\0\\#p opt b3lyp/6-31g*\\Auto Spiro\\0,1\C,12.9521478905,-11.14305
 31993,0.1505216515\C,11.7271359739,-11.9190862049,-0.3443182007\C,12.0
 962717898,-13.2275008869,-0.7240695831\C,13.5211002057,-13.4194235894,
 -0.4506597278\C,14.041855053,-12.2308652367,0.0911493029\C,13.30493254
 62,-9.9269184521,-0.7244078283\C,13.558649038,-8.8050020357,0.08512555
 61\C,13.3284647253,-9.1667558141,1.4846937154\C,12.8944856402,-10.5057
 86735,1.5435328067\C,13.3646746075,-9.8486075936,-2.1090646708\C,13.70
 49637479,-8.6227315416,-2.7155013912\C,14.0171975958,-7.5166548962,-1.
 8976567914\C,13.932332558,-7.5991000046,-0.5119668461\C,14.3609639025,
 -14.5239022226,-0.6039880523\C,15.6898948802,-14.4423828692,-0.1946654
 515\C,16.195414646,-13.2733911776,0.4041448774\C,15.353019984,-12.1502
 963295,0.5318306829\C,10.4256417793,-11.4689794754,-0.506645286\C,9.45
 62498626,-12.3367696288,-1.0493784934\C,9.8234372026,-13.6456568564,-1
 .4041909933\C,11.1355051003,-14.0894181887,-1.2526824204\C,13.48057364
 39,-8.4298197554,2.663079617\C,13.1993821088,-9.0351302248,3.884805775
 4\C,12.7659242771,-10.3688427386,3.9452680997\C,12.6061804346,-11.1084
 538846,2.7620774628\N,13.7209308945,-8.4735374622,-4.1226390067\N,17.5
 274771998,-13.2229523704,0.8997123039\N,8.1264252884,-11.8739451935,-1
 .2595094124\N,12.5278497549,-10.9670768146,5.2263599272\C,13.636362365
 1,-11.1922423513,6.0811150847\C,7.4563956822,-11.1748822839,-0.2148182
 337\C,11.3332591282,-11.7233443365,5.3991302304\C,7.3164384006,-12.476
 1284636,-2.2669954687\C,13.7853632457,-9.5972247009,-4.9948191424\C,13
 .3503718356,-7.2264397324,-4.7060173368\C,18.2465109894,-14.4207281774
 ,1.1833089763\C,18.2719878707,-12.0113027219,0.8025976807\C,19.5068842
 951,-14.6364462948,0.6073274992\C,20.2417881506,-15.7894061274,0.87782
 31771\C,19.7152190596,-16.7697977297,1.7187816876\C,18.4615484677,-16.
 5728130391,2.2975037222\C,17.7311983423,-15.4081190811,2.054898502\C,1
 2.7734849558,-9.8207603085,-5.9321485507\C,12.8402413192,-10.880995088
 ,-6.8395584774\C,13.9254777546,-11.7508852116,-6.79526151\C,14.9501972
 785,-11.5488896056,-5.8664704809\C,14.9025833661,-10.4677084437,-4.980
 0420283\C,14.1762409874,-6.6388328856,-5.6956750117\C,13.7981475966,-5
 .4272514026,-6.284167517\C,12.6231617292,-4.784610453,-5.8847316876\C,
 11.8124644987,-5.3484031707,-4.9026903151\C,12.1761102941,-6.567692307
 8,-4.329146262\C,19.0463996466,-11.5567353772,1.8995558288\C,19.787927
 335,-10.3770578346,1.7872709357\C,19.7489768847,-9.6254986902,0.609970
 4087\C,18.9764909808,-10.0530734959,-0.4660135296\C,18.2575810579,-11.
 2446406581,-0.3661826102\C,7.5383845993,-11.6149821048,1.1140797009\C,
 6.824109013,-10.9802822408,2.1285912414\C,6.004801955,-9.8898003769,1.
 8290941821\C,5.9277306498,-9.4286324015,0.5153080651\C,6.6507451231,-1
 0.0499451862,-0.5052558536\C,7.7370188779,-12.4700865862,-3.6204627959
 \C,6.9362574744,-13.0626069323,-4.6000374357\C,5.7080453394,-13.636956
 7227,-4.258377663\C,5.2788281381,-13.6316811703,-2.9351494769\C,6.0886
 25144,-13.0629326218,-1.9502769984\C,10.0816156394,-11.0702070111,5.29
 23660271\C,8.9015003449,-11.7991919522,5.4588544366\C,8.9528131246,-13
 .1678382674,5.7436364684\C,10.1795844334,-13.8139890953,5.8621062511\C
 ,11.3598929921,-13.0898961636,5.6822928017\C,14.9242223112,-11.4030737
 243,5.5592277679\C,16.0191937055,-11.6179509246,6.3949615651\C,15.8523
 890021,-11.6502611029,7.7794280193\C,14.5816791171,-11.4375312586,8.31
 47650661\C,13.4846247595,-11.1926699043,7.4889393299\H,12.2856024747,-
 12.1450221673,2.8135446811\H,10.1492418218,-10.4542567585,-0.236072725
 2\H,9.070379489,-14.3152219472,-1.8065358294\H,11.3962040162,-15.10556
 3666,-1.5382019023\H,13.9905267117,-15.4507668968,-1.0348911107\H,16.3
 389885011,-15.3027498072,-0.3126270349\H,13.8123358799,-7.3949414672,2
 .6330048533\H,13.3094721467,-8.4809859789,4.8118899639\H,14.1564024236
 ,-6.7232566776,0.0921631345\H,14.3106766403,-6.5822293396,-2.363202982
 9\H,15.7279685423,-11.2378529333,0.9839916185\H,13.1229033681,-10.7108
 854453,-2.7218930656\H,18.021191361,-17.3136200221,2.9584873107\O,16.4
 842186103,-15.3027347976,2.6214370697\H,11.9311951122,-9.1357352401,-5
 .9523142067\H,12.046017489,-11.0233607589,-7.5670516459\H,21.215107094
 8,-15.9263220318,0.4144373711\H,19.9055867325,-13.8826001487,-0.064683
 6388\H,15.7952303888,-12.2274048865,-5.8525690824\O,15.8813611073,-10.
 172556376,-4.0837944865\H,12.3241514985,-13.5816866814,5.7700991979\H,
 10.2249103206,-14.8763815732,6.0829803437\H,7.9401939057,-11.301899507
 8,5.394715367\O,10.1308761931,-9.7273773071,5.0518640926\H,7.254978421
 7,-13.0614164776,-5.63615333\O,8.9330694828,-11.8654719569,-3.87362903
 11\H,4.3272003085,-14.0773423994,-2.6605297614\H,5.7692883279,-13.0667
 982578,-0.9129531901\H,5.3084105956,-8.577296903,0.2491005196\O,6.4884
 564943,-9.5714595741,-1.7823937442\H,5.4313608402,-9.3985494154,2.6106
 178548\H,6.8911015593,-11.3614826204,3.1430907343\H,8.1587406648,-12.4
 76876419,1.3397324902\H,15.0572183784,-11.3993486155,4.4826955486\H,16
 .9996349387,-11.7774892158,5.9537894684\H,16.6982617204,-11.8297030292
 ,8.4371640532\H,14.4117737095,-11.4441597239,9.3876225554\O,12.2566533
 824,-11.0024099558,8.0839608717\H,20.3821735593,-10.0261525359,2.62318
 11326\O,19.0076924057,-12.3262913711,3.0255452556\H,20.3204844755,-8.7
 03716277,0.5472796759\H,18.9362463073,-9.4691787293,-1.3811463974\H,17
 .6538886015,-11.5935634667,-1.1970857074\H,11.552704411,-7.0248977591,
 -3.5667124465\H,10.8966083474,-4.8545632782,-4.5914224522\H,12.3507412
 37,-3.8398213299,-6.3471081398\H,14.423264404,-4.9710619747,-7.0432177
 64\O,15.3140739902,-7.3198174304,-6.0065679054\H,20.273616182,-17.6782
 485407,1.9270351267\H,13.9896523767,-12.5886853891,-7.4841937053\H,5.0
 937050929,-14.0819492589,-5.0362979915\H,8.0256593244,-13.718263464,5.
 8782747802\C,11.8171945532,-9.6427573675,8.1288843393\C,8.9117753751,-
 9.0223744252,4.8770078362\C,7.6410850041,-8.9577906319,-2.3702615018\C
 ,9.4649630314,-11.9398510422,-5.1868312809\C,16.1689417567,-6.78776343
 98,-7.004090714\C,17.0519479596,-10.9711204482,-4.0837709025\C,19.8378
 803661,-11.9698451222,4.1196017383\C,16.3653802651,-14.3767927704,3.70
 52727175\H,12.541174544,-9.0168799908,8.6685989622\H,10.8695515486,-9.
 6498853359,8.6731058728\H,11.6547184319,-9.2391311608,7.1241735724\H,9
 .1953602616,-7.9864669009,4.6818682501\H,8.2886567752,-9.0626579562,5.
 7809789818\H,8.342943345,-9.4089188566,4.0229871604\H,7.3034390152,-8.
 5440397836,-3.3235596861\H,8.4384509615,-9.6838448765,-2.550363008\H,8
 .0125012302,-8.1436744538,-1.7334385487\H,10.4430029125,-11.4592041715
 ,-5.1428364606\H,8.8287505368,-11.4113678264,-5.9099515052\H,9.5876561
 311,-12.9818529657,-5.5093565199\H,17.000655623,-7.4895592307,-7.08734
 73495\H,16.5555926568,-5.7997297118,-6.7204731283\H,15.6609105841,-6.7
 113282391,-7.9745292097\H,17.7199168262,-10.5186524777,-3.349607347\H,
 17.5418486113,-10.9687773321,-5.0666818156\H,16.8370277143,-12.0071747
 11,-3.7904719075\H,19.6813270254,-12.7426092999,4.8742952414\H,19.5610
 048226,-10.9922654701,4.5360122897\H,20.8968632447,-11.9536688905,3.83
 16623308\H,16.9710305123,-14.7044076131,4.5613492276\H,15.3111447595,-
 14.3749849471,3.9881979785\H,16.6733146532,-13.3700276622,3.4111346984
 \\Version=EM64L-G09RevA.02\State=1-A\HF=-3948.2587545\RMSD=4.879e-09\R
 MSF=3.833e-06\Dipole=1.5417796,1.2824904,-1.3203785\Quadrupole=2.48928
 69,-10.3772458,7.8879589,1.5000899,-5.2666012,1.5291742\PG=C01 [X(C81H
 68N4O8)]\\@


 In the beginning the Universe was created.
 This has made a lot of people very angry
 and been widely regarded as a bad move.
                               -D.Adams
 Job cpu time:  4 days 20 hours  8 minutes 26.0 seconds.
 File lengths (MBytes):  RWF=   1450 Int=      0 D2E=      0 Chk=    144 Scr=      1
 Normal termination of Gaussian 09 at Thu Aug  7 13:17:38 2014.
