 Entering Gaussian System, Link 0=g09
 Input=b3lyp-631gs_opt/HF_3.com
 Output=b3lyp-631gs_opt/HF_3.log
 Initial command:
 /opt/g09/l1.exe /home/jarvist/super_spiro/Gau-27026.inp -scrdir=/home/jarvist/super_spiro/
 Default is to use a total of   8 processors:
                                8 via shared-memory
                                1 via Linda
 Entering Link 1 = /opt/g09/l1.exe PID=     27028.
  
 Copyright (c) 1988,1990,1992,1993,1995,1998,2003,2009, Gaussian, Inc.
                  All Rights Reserved.
  
 This is part of the Gaussian(R) 09 program.  It is based on
 the Gaussian(R) 03 system (copyright 2003, Gaussian, Inc.),
 the Gaussian(R) 98 system (copyright 1998, Gaussian, Inc.),
 the Gaussian(R) 94 system (copyright 1995, Gaussian, Inc.),
 the Gaussian 92(TM) system (copyright 1992, Gaussian, Inc.),
 the Gaussian 90(TM) system (copyright 1990, Gaussian, Inc.),
 the Gaussian 88(TM) system (copyright 1988, Gaussian, Inc.),
 the Gaussian 86(TM) system (copyright 1986, Carnegie Mellon
 University), and the Gaussian 82(TM) system (copyright 1983,
 Carnegie Mellon University). Gaussian is a federally registered
 trademark of Gaussian, Inc.
  
 This software contains proprietary and confidential information,
 including trade secrets, belonging to Gaussian, Inc.
  
 This software is provided under written license and may be
 used, copied, transmitted, or stored only in accord with that
 written license.
  
 The following legend is applicable only to US Government
 contracts under FAR:
  
                    RESTRICTED RIGHTS LEGEND
  
 Use, reproduction and disclosure by the US Government is
 subject to restrictions as set forth in subparagraphs (a)
 and (c) of the Commercial Computer Software - Restricted
 Rights clause in FAR 52.227-19.
  
 Gaussian, Inc.
 340 Quinnipiac St., Bldg. 40, Wallingford CT 06492
  
  
 ---------------------------------------------------------------
 Warning -- This program may not be used in any manner that
 competes with the business of Gaussian, Inc. or will provide
 assistance to any competitor of Gaussian, Inc.  The licensee
 of this program is prohibited from giving any competitor of
 Gaussian, Inc. access to this program.  By using this program,
 the user acknowledges that Gaussian, Inc. is engaged in the
 business of creating and licensing software in the field of
 computational chemistry and represents and warrants to the
 licensee that it is not a competitor of Gaussian, Inc. and that
 it will not use this program in any manner prohibited above.
 ---------------------------------------------------------------
  

 Cite this work as:
 Gaussian 09, Revision A.02,
 M. J. Frisch, G. W. Trucks, H. B. Schlegel, G. E. Scuseria, 
 M. A. Robb, J. R. Cheeseman, G. Scalmani, V. Barone, B. Mennucci, 
 G. A. Petersson, H. Nakatsuji, M. Caricato, X. Li, H. P. Hratchian, 
 A. F. Izmaylov, J. Bloino, G. Zheng, J. L. Sonnenberg, M. Hada, 
 M. Ehara, K. Toyota, R. Fukuda, J. Hasegawa, M. Ishida, T. Nakajima, 
 Y. Honda, O. Kitao, H. Nakai, T. Vreven, J. A. Montgomery, Jr., 
 J. E. Peralta, F. Ogliaro, M. Bearpark, J. J. Heyd, E. Brothers, 
 K. N. Kudin, V. N. Staroverov, R. Kobayashi, J. Normand, 
 K. Raghavachari, A. Rendell, J. C. Burant, S. S. Iyengar, J. Tomasi, 
 M. Cossi, N. Rega, J. M. Millam, M. Klene, J. E. Knox, J. B. Cross, 
 V. Bakken, C. Adamo, J. Jaramillo, R. Gomperts, R. E. Stratmann, 
 O. Yazyev, A. J. Austin, R. Cammi, C. Pomelli, J. W. Ochterski, 
 R. L. Martin, K. Morokuma, V. G. Zakrzewski, G. A. Voth, 
 P. Salvador, J. J. Dannenberg, S. Dapprich, A. D. Daniels, 
 O. Farkas, J. B. Foresman, J. V. Ortiz, J. Cioslowski, 
 and D. J. Fox, Gaussian, Inc., Wallingford CT, 2009.
 
 ******************************************
 Gaussian 09:  EM64L-G09RevA.02 11-Jun-2009
                 7-Aug-2014 
 ******************************************
 %mem=16GB
 %nprocs=24
 Will use up to   24 processors via shared memory.
 Default route:  MaxDisk=100GB
 -------------------
 #p opt b3lyp/6-31g*
 -------------------
 1/14=-1,18=20,19=15,26=3,38=1/1,3;
 2/9=110,12=2,17=6,18=5,40=1/2;
 3/5=1,6=6,7=1,11=2,16=1,25=1,30=1,71=1,74=-5/1,2,3;
 4//1;
 5/5=2,38=5/2;
 6/7=2,8=2,9=2,10=2,28=1/1;
 7//1,2,3,16;
 1/14=-1,18=20,19=15/3(2);
 2/9=110/2;
 99//99;
 2/9=110/2;
 3/5=1,6=6,7=1,11=2,16=1,25=1,30=1,71=1,74=-5/1,2,3;
 4/5=5,16=3/1;
 5/5=2,38=5/2;
 7//1,2,3,16;
 1/14=-1,18=20,19=15/3(-5);
 2/9=110/2;
 6/7=2,8=2,9=2,10=2,19=2,28=1/1;
 99/9=1/99;
 Leave Link    1 at Thu Aug  7 13:17:38 2014, MaxMem= 2147483648 cpu:       1.6
 (Enter /opt/g09/l101.exe)
 ----------
 Auto Spiro
 ----------
 Symbolic Z-matrix:
 Charge =  0 Multiplicity = 1
 C                     12.74934  -11.35197   0.29167 
 C                     11.46221  -12.05268  -0.14972 
 C                     11.74511  -13.36426  -0.59267 
 C                     13.15855  -13.64485  -0.35845 
 C                     13.7667  -12.48876   0.17252 
 C                     13.0818  -10.17881  -0.64344 
 C                     13.23781  -8.98989   0.09519 
 C                     13.06709  -9.29125   1.51143 
 C                     12.75648  -10.66191   1.65628 
 C                     13.21298  -10.19678  -2.02237 
 C                     13.51342  -8.99883  -2.70075 
 C                     13.67151  -7.80808  -1.9623 
 C                     13.5311  -7.79832  -0.57759 
 C                     13.92989  -14.79554  -0.55311 
 C                     15.28232  -14.78038  -0.22042 
 C                     15.88607  -13.62649   0.31899 
 C                     15.10725  -12.46845   0.51561 
 C                     10.18666  -11.52033  -0.25934 
 C                     9.17284  -12.2908  -0.85719 
 C                     9.457    -13.58866  -1.3164 
 C                     10.7325  -14.13292  -1.17794 
 C                     13.21701  -8.4889    2.64761 
 C                     13.08684  -9.06287   3.9082 
 C                     12.8034  -10.43381   4.05609 
 C                     12.61426  -11.23467   2.91263 
 N                     13.67803  -9.00356  -4.10645 
 N                     17.25518  -13.63555   0.67509 
 N                     7.86923  -11.74087  -1.02743 
 N                     12.75705  -11.00049   5.35725 
 C                     13.81853  -10.74592   6.26032 
 C                     7.15085  -11.31511   0.11518 
 C                     11.66205  -11.81515   5.73943 
 C                     7.34862  -11.58543  -2.33305 
 C                     14.34405  -10.1057  -4.71763 
 C                     13.19211  -7.94603  -4.90789 
 C                     17.81986  -14.79526   1.2748 
 C                     18.05625  -12.48495   0.47886 
 C                     19.06114  -15.28628   0.85585 
 C                     19.62994  -16.41368   1.45233 
 C                     18.94427  -17.08415   2.47315 
 C                     17.69349  -16.60417   2.89123 
 C                     17.14518  -15.47139   2.30666 
 C                     13.78167  -10.76517  -5.81495 
 C                     14.43425  -11.84061  -6.42174 
 C                     15.66353  -12.2839  -5.91701 
 C                     16.22982  -11.6313  -4.81097 
 C                     15.582   -10.55287  -4.22471 
 C                     13.88779  -7.57041  -6.06739 
 C                     13.396   -6.53593  -6.86478 
 C                     12.22262  -5.84542  -6.5249 
 C                     11.54449  -6.23174  -5.35838 
 C                     12.01003  -7.27582  -4.55752 
 C                     19.01758  -12.12437   1.43392 
 C                     19.79883  -10.98502   1.22951 
 C                     19.63561  -10.18189   0.09058 
 C                     18.66777  -10.56068  -0.85263 
 C                     17.88833  -11.70444  -0.67359 
 C                     7.16593  -12.12066   1.26363 
 C                     6.45784  -11.70835   2.39854 
 C                     5.74456  -10.50684   2.40064 
 C                     5.73729  -9.71587   1.2478 
 C                     6.43589  -10.10673   0.099 
 C                     8.19323  -11.29528  -3.41366 
 C                     7.69094  -11.1577  -4.71023 
 C                     6.31864  -11.29087  -4.94704 
 C                     5.46449  -11.57975  -3.8717 
 C                     5.97092  -11.73374  -2.58919 
 C                     10.34715  -11.45774   5.38984 
 C                     9.26838  -12.23898   5.7812 
 C                     9.47296  -13.39938   6.54257 
 C                     10.77704  -13.76909   6.89406 
 C                     11.85723  -12.98475   6.48532 
 C                     15.1347  -10.68071   5.77581 
 C                     16.18191  -10.42166   6.66873 
 C                     15.93411  -10.24186   8.03244 
 C                     14.61973  -10.31802   8.50092 
 C                     13.55308  -10.56139   7.62702 
 H                     12.4044  -12.29847   3.02853 
 H                     9.96356  -10.50634   0.07444 
 H                     8.65848  -14.16448  -1.7841 
 H                     10.93308  -15.14546  -1.5303 
 H                     13.48769  -15.70203  -0.96852 
 H                     15.89015  -15.67115  -0.37368 
 H                     13.44529  -7.42635   2.55544 
 H                     13.2217  -8.45806   4.80442 
 H                     13.66548  -6.86527  -0.02877 
 H                     13.91044  -6.88692  -2.49181 
 H                     15.56285  -11.57352   0.93836 
 H                     13.08768  -11.12092  -2.58679 
 O                     8.34434  -14.09925   6.88988 
 C                     8.51806  -15.2685   7.68076 
 O                     5.71846  -11.16184  -6.17449 
 C                     6.55715  -10.85213  -7.2796 
 O                     19.40389  -18.20004   3.11911 
 O                     16.38278  -13.33057  -6.42807 
 C                     15.83001  -14.02652  -7.53861 
 C                     20.67146  -18.71138   2.72364 
 H                     17.17261  -17.12721   3.6926 
 H                     16.17904  -15.10022   2.64725 
 H                     12.82234  -10.42788  -6.2066 
 H                     13.96841  -12.32929  -7.27484 
 H                     20.59943  -16.76355   1.10394 
 H                     19.59665  -14.7743   0.05677 
 H                     17.19084  -11.97623  -4.43016 
 H                     16.03951  -10.05143  -3.37198 
 H                     12.86895  -13.2808   6.76041 
 H                     10.96917  -14.66933   7.47432 
 H                     8.25152  -11.95172   5.51458 
 H                     10.17421  -10.55197   4.80929 
 H                     8.38216  -10.93012  -5.51924 
 H                     9.26226  -11.17462  -3.24193 
 H                     4.3984   -11.69588  -4.06622 
 H                     5.29619  -11.96996  -1.76726 
 H                     7.30942  -11.63942  -7.45148 
 H                     7.07238  -9.88773  -7.13992 
 H                     5.89655  -10.78713  -8.15047 
 H                     15.70182  -13.36322  -8.40927 
 H                     14.85983  -14.48404  -7.28643 
 H                     16.54838  -14.81451  -7.78678 
 H                     20.85294  -19.58602   3.35639 
 H                     21.47303  -17.97235   2.88406 
 H                     20.67004  -19.02032   1.66601 
 H                     8.99566  -15.03621   8.64646 
 H                     9.11861  -16.02895   7.15553 
 H                     7.51263  -15.6627   7.86067 
 O                     5.01841  -8.5534    1.34029 
 H                     6.44829  -9.4948   -0.79823 
 H                     5.18866  -10.19774   3.28321 
 O                     6.39097  -12.43948   3.55428 
 H                     7.71486  -13.0576   1.24355 
 H                     15.31863  -10.84238   4.71805 
 O                     17.49553  -10.34709   6.2932 
 H                     16.75441  -10.04989   8.72087 
 O                     14.46581  -10.12234   9.84852 
 H                     12.52662  -10.60286   7.97917 
 O                     20.70314  -10.7104   2.22296 
 H                     19.1645  -12.71542   2.33515 
 H                     20.24025  -9.2936   -0.05724 
 O                     18.42725  -9.86525  -2.00868 
 H                     17.15609  -11.97477  -1.4311 
 H                     11.44262  -7.55817  -3.67386 
 O                     10.38446  -5.63966  -4.93099 
 H                     11.8499  -5.03739  -7.14486 
 O                     14.14698  -6.24486  -7.97447 
 H                     14.80963  -8.06965  -6.3566 
 C                     13.14787  -10.19249   10.37997 
 C                     21.51538  -9.55088   2.08219 
 C                     13.71364  -5.17953  -8.80996 
 C                     4.97108  -7.71327   0.19258 
 H                     13.25099  -10.02491   11.45707 
 H                     12.69205  -11.18043   10.2064 
 H                     12.49592  -9.41438   9.95162 
 H                     22.15254  -9.52266   2.97198 
 H                     20.90799  -8.63243   2.04131 
 H                     22.14987  -9.60739   1.18324 
 H                     14.45024  -5.11399  -9.61726 
 H                     13.68529  -4.22171  -8.26564 
 H                     12.71977  -5.38056  -9.24183 
 H                     4.34299  -6.86116   0.47283 
 H                     4.52145  -8.23022  -0.67005 
 H                     5.97374  -7.3508   -0.08547 
 C                     19.19656  -8.6945   -2.25768 
 H                     18.84719  -8.3071   -3.22015 
 H                     20.27198  -8.92392  -2.32673 
 H                     19.03499  -7.93173  -1.47934 
 C                     17.80295  -10.55011   4.91603 
 H                     18.88979  -10.45357   4.8308 
 H                     17.31826  -9.79499   4.27737 
 H                     17.50213  -11.55414   4.57797 
 C                     6.9721   -13.74244   3.54385 
 H                     6.79846  -14.15408   4.54284 
 H                     8.05665  -13.70236   3.36002 
 H                     6.49471  -14.38242   2.78518 
 C                     9.84175  -4.59061  -5.72183 
 H                     8.92628  -4.27424  -5.21151 
 H                     9.5901   -4.93592  -6.73781 
 H                     10.53235  -3.73436  -5.79037 
 
 NAtoms=    177 NQM=    177 NQMF=      0 NMic=      0 NMicF=      0 NTot=    177.
                    Isotopes and Nuclear Properties:
 (Nuclear quadrupole moments (NQMom) in fm**2, nuclear magnetic moments (NMagM)
  in nuclear magnetons)

  Atom         1           2           3           4           5           6           7           8           9          10
 IAtWgt=          12          12          12          12          12          12          12          12          12          12
 AtmWgt=  12.0000000  12.0000000  12.0000000  12.0000000  12.0000000  12.0000000  12.0000000  12.0000000  12.0000000  12.0000000
 NucSpn=           0           0           0           0           0           0           0           0           0           0
 AtZEff=   0.0000000   0.0000000   0.0000000   0.0000000   0.0000000   0.0000000   0.0000000   0.0000000   0.0000000   0.0000000
 NQMom=    0.0000000   0.0000000   0.0000000   0.0000000   0.0000000   0.0000000   0.0000000   0.0000000   0.0000000   0.0000000
 NMagM=    0.0000000   0.0000000   0.0000000   0.0000000   0.0000000   0.0000000   0.0000000   0.0000000   0.0000000   0.0000000

  Atom        11          12          13          14          15          16          17          18          19          20
 IAtWgt=          12          12          12          12          12          12          12          12          12          12
 AtmWgt=  12.0000000  12.0000000  12.0000000  12.0000000  12.0000000  12.0000000  12.0000000  12.0000000  12.0000000  12.0000000
 NucSpn=           0           0           0           0           0           0           0           0           0           0
 AtZEff=   0.0000000   0.0000000   0.0000000   0.0000000   0.0000000   0.0000000   0.0000000   0.0000000   0.0000000   0.0000000
 NQMom=    0.0000000   0.0000000   0.0000000   0.0000000   0.0000000   0.0000000   0.0000000   0.0000000   0.0000000   0.0000000
 NMagM=    0.0000000   0.0000000   0.0000000   0.0000000   0.0000000   0.0000000   0.0000000   0.0000000   0.0000000   0.0000000

  Atom        21          22          23          24          25          26          27          28          29          30
 IAtWgt=          12          12          12          12          12          14          14          14          14          12
 AtmWgt=  12.0000000  12.0000000  12.0000000  12.0000000  12.0000000  14.0030740  14.0030740  14.0030740  14.0030740  12.0000000
 NucSpn=           0           0           0           0           0           2           2           2           2           0
 AtZEff=   0.0000000   0.0000000   0.0000000   0.0000000   0.0000000   0.0000000   0.0000000   0.0000000   0.0000000   0.0000000
 NQMom=    0.0000000   0.0000000   0.0000000   0.0000000   0.0000000   2.0440000   2.0440000   2.0440000   2.0440000   0.0000000
 NMagM=    0.0000000   0.0000000   0.0000000   0.0000000   0.0000000   0.4037610   0.4037610   0.4037610   0.4037610   0.0000000

  Atom        31          32          33          34          35          36          37          38          39          40
 IAtWgt=          12          12          12          12          12          12          12          12          12          12
 AtmWgt=  12.0000000  12.0000000  12.0000000  12.0000000  12.0000000  12.0000000  12.0000000  12.0000000  12.0000000  12.0000000
 NucSpn=           0           0           0           0           0           0           0           0           0           0
 AtZEff=   0.0000000   0.0000000   0.0000000   0.0000000   0.0000000   0.0000000   0.0000000   0.0000000   0.0000000   0.0000000
 NQMom=    0.0000000   0.0000000   0.0000000   0.0000000   0.0000000   0.0000000   0.0000000   0.0000000   0.0000000   0.0000000
 NMagM=    0.0000000   0.0000000   0.0000000   0.0000000   0.0000000   0.0000000   0.0000000   0.0000000   0.0000000   0.0000000

  Atom        41          42          43          44          45          46          47          48          49          50
 IAtWgt=          12          12          12          12          12          12          12          12          12          12
 AtmWgt=  12.0000000  12.0000000  12.0000000  12.0000000  12.0000000  12.0000000  12.0000000  12.0000000  12.0000000  12.0000000
 NucSpn=           0           0           0           0           0           0           0           0           0           0
 AtZEff=   0.0000000   0.0000000   0.0000000   0.0000000   0.0000000   0.0000000   0.0000000   0.0000000   0.0000000   0.0000000
 NQMom=    0.0000000   0.0000000   0.0000000   0.0000000   0.0000000   0.0000000   0.0000000   0.0000000   0.0000000   0.0000000
 NMagM=    0.0000000   0.0000000   0.0000000   0.0000000   0.0000000   0.0000000   0.0000000   0.0000000   0.0000000   0.0000000

  Atom        51          52          53          54          55          56          57          58          59          60
 IAtWgt=          12          12          12          12          12          12          12          12          12          12
 AtmWgt=  12.0000000  12.0000000  12.0000000  12.0000000  12.0000000  12.0000000  12.0000000  12.0000000  12.0000000  12.0000000
 NucSpn=           0           0           0           0           0           0           0           0           0           0
 AtZEff=   0.0000000   0.0000000   0.0000000   0.0000000   0.0000000   0.0000000   0.0000000   0.0000000   0.0000000   0.0000000
 NQMom=    0.0000000   0.0000000   0.0000000   0.0000000   0.0000000   0.0000000   0.0000000   0.0000000   0.0000000   0.0000000
 NMagM=    0.0000000   0.0000000   0.0000000   0.0000000   0.0000000   0.0000000   0.0000000   0.0000000   0.0000000   0.0000000

  Atom        61          62          63          64          65          66          67          68          69          70
 IAtWgt=          12          12          12          12          12          12          12          12          12          12
 AtmWgt=  12.0000000  12.0000000  12.0000000  12.0000000  12.0000000  12.0000000  12.0000000  12.0000000  12.0000000  12.0000000
 NucSpn=           0           0           0           0           0           0           0           0           0           0
 AtZEff=   0.0000000   0.0000000   0.0000000   0.0000000   0.0000000   0.0000000   0.0000000   0.0000000   0.0000000   0.0000000
 NQMom=    0.0000000   0.0000000   0.0000000   0.0000000   0.0000000   0.0000000   0.0000000   0.0000000   0.0000000   0.0000000
 NMagM=    0.0000000   0.0000000   0.0000000   0.0000000   0.0000000   0.0000000   0.0000000   0.0000000   0.0000000   0.0000000

  Atom        71          72          73          74          75          76          77          78          79          80
 IAtWgt=          12          12          12          12          12          12          12           1           1           1
 AtmWgt=  12.0000000  12.0000000  12.0000000  12.0000000  12.0000000  12.0000000  12.0000000   1.0078250   1.0078250   1.0078250
 NucSpn=           0           0           0           0           0           0           0           1           1           1
 AtZEff=   0.0000000   0.0000000   0.0000000   0.0000000   0.0000000   0.0000000   0.0000000   0.0000000   0.0000000   0.0000000
 NQMom=    0.0000000   0.0000000   0.0000000   0.0000000   0.0000000   0.0000000   0.0000000   0.0000000   0.0000000   0.0000000
 NMagM=    0.0000000   0.0000000   0.0000000   0.0000000   0.0000000   0.0000000   0.0000000   2.7928460   2.7928460   2.7928460

  Atom        81          82          83          84          85          86          87          88          89          90
 IAtWgt=           1           1           1           1           1           1           1           1           1          16
 AtmWgt=   1.0078250   1.0078250   1.0078250   1.0078250   1.0078250   1.0078250   1.0078250   1.0078250   1.0078250  15.9949146
 NucSpn=           1           1           1           1           1           1           1           1           1           0
 AtZEff=   0.0000000   0.0000000   0.0000000   0.0000000   0.0000000   0.0000000   0.0000000   0.0000000   0.0000000   0.0000000
 NQMom=    0.0000000   0.0000000   0.0000000   0.0000000   0.0000000   0.0000000   0.0000000   0.0000000   0.0000000   0.0000000
 NMagM=    2.7928460   2.7928460   2.7928460   2.7928460   2.7928460   2.7928460   2.7928460   2.7928460   2.7928460   0.0000000

  Atom        91          92          93          94          95          96          97          98          99         100
 IAtWgt=          12          16          12          16          16          12          12           1           1           1
 AtmWgt=  12.0000000  15.9949146  12.0000000  15.9949146  15.9949146  12.0000000  12.0000000   1.0078250   1.0078250   1.0078250
 NucSpn=           0           0           0           0           0           0           0           1           1           1
 AtZEff=   0.0000000   0.0000000   0.0000000   0.0000000   0.0000000   0.0000000   0.0000000   0.0000000   0.0000000   0.0000000
 NQMom=    0.0000000   0.0000000   0.0000000   0.0000000   0.0000000   0.0000000   0.0000000   0.0000000   0.0000000   0.0000000
 NMagM=    0.0000000   0.0000000   0.0000000   0.0000000   0.0000000   0.0000000   0.0000000   2.7928460   2.7928460   2.7928460

  Atom       101         102         103         104         105         106         107         108         109         110
 IAtWgt=           1           1           1           1           1           1           1           1           1           1
 AtmWgt=   1.0078250   1.0078250   1.0078250   1.0078250   1.0078250   1.0078250   1.0078250   1.0078250   1.0078250   1.0078250
 NucSpn=           1           1           1           1           1           1           1           1           1           1
 AtZEff=   0.0000000   0.0000000   0.0000000   0.0000000   0.0000000   0.0000000   0.0000000   0.0000000   0.0000000   0.0000000
 NQMom=    0.0000000   0.0000000   0.0000000   0.0000000   0.0000000   0.0000000   0.0000000   0.0000000   0.0000000   0.0000000
 NMagM=    2.7928460   2.7928460   2.7928460   2.7928460   2.7928460   2.7928460   2.7928460   2.7928460   2.7928460   2.7928460

  Atom       111         112         113         114         115         116         117         118         119         120
 IAtWgt=           1           1           1           1           1           1           1           1           1           1
 AtmWgt=   1.0078250   1.0078250   1.0078250   1.0078250   1.0078250   1.0078250   1.0078250   1.0078250   1.0078250   1.0078250
 NucSpn=           1           1           1           1           1           1           1           1           1           1
 AtZEff=   0.0000000   0.0000000   0.0000000   0.0000000   0.0000000   0.0000000   0.0000000   0.0000000   0.0000000   0.0000000
 NQMom=    0.0000000   0.0000000   0.0000000   0.0000000   0.0000000   0.0000000   0.0000000   0.0000000   0.0000000   0.0000000
 NMagM=    2.7928460   2.7928460   2.7928460   2.7928460   2.7928460   2.7928460   2.7928460   2.7928460   2.7928460   2.7928460

  Atom       121         122         123         124         125         126         127         128         129         130
 IAtWgt=           1           1           1           1           1          16           1           1          16           1
 AtmWgt=   1.0078250   1.0078250   1.0078250   1.0078250   1.0078250  15.9949146   1.0078250   1.0078250  15.9949146   1.0078250
 NucSpn=           1           1           1           1           1           0           1           1           0           1
 AtZEff=   0.0000000   0.0000000   0.0000000   0.0000000   0.0000000   0.0000000   0.0000000   0.0000000   0.0000000   0.0000000
 NQMom=    0.0000000   0.0000000   0.0000000   0.0000000   0.0000000   0.0000000   0.0000000   0.0000000   0.0000000   0.0000000
 NMagM=    2.7928460   2.7928460   2.7928460   2.7928460   2.7928460   0.0000000   2.7928460   2.7928460   0.0000000   2.7928460

  Atom       131         132         133         134         135         136         137         138         139         140
 IAtWgt=           1          16           1          16           1          16           1           1          16           1
 AtmWgt=   1.0078250  15.9949146   1.0078250  15.9949146   1.0078250  15.9949146   1.0078250   1.0078250  15.9949146   1.0078250
 NucSpn=           1           0           1           0           1           0           1           1           0           1
 AtZEff=   0.0000000   0.0000000   0.0000000   0.0000000   0.0000000   0.0000000   0.0000000   0.0000000   0.0000000   0.0000000
 NQMom=    0.0000000   0.0000000   0.0000000   0.0000000   0.0000000   0.0000000   0.0000000   0.0000000   0.0000000   0.0000000
 NMagM=    2.7928460   0.0000000   2.7928460   0.0000000   2.7928460   0.0000000   2.7928460   2.7928460   0.0000000   2.7928460

  Atom       141         142         143         144         145         146         147         148         149         150
 IAtWgt=           1          16           1          16           1          12          12          12          12           1
 AtmWgt=   1.0078250  15.9949146   1.0078250  15.9949146   1.0078250  12.0000000  12.0000000  12.0000000  12.0000000   1.0078250
 NucSpn=           1           0           1           0           1           0           0           0           0           1
 AtZEff=   0.0000000   0.0000000   0.0000000   0.0000000   0.0000000   0.0000000   0.0000000   0.0000000   0.0000000   0.0000000
 NQMom=    0.0000000   0.0000000   0.0000000   0.0000000   0.0000000   0.0000000   0.0000000   0.0000000   0.0000000   0.0000000
 NMagM=    2.7928460   0.0000000   2.7928460   0.0000000   2.7928460   0.0000000   0.0000000   0.0000000   0.0000000   2.7928460

  Atom       151         152         153         154         155         156         157         158         159         160
 IAtWgt=           1           1           1           1           1           1           1           1           1           1
 AtmWgt=   1.0078250   1.0078250   1.0078250   1.0078250   1.0078250   1.0078250   1.0078250   1.0078250   1.0078250   1.0078250
 NucSpn=           1           1           1           1           1           1           1           1           1           1
 AtZEff=   0.0000000   0.0000000   0.0000000   0.0000000   0.0000000   0.0000000   0.0000000   0.0000000   0.0000000   0.0000000
 NQMom=    0.0000000   0.0000000   0.0000000   0.0000000   0.0000000   0.0000000   0.0000000   0.0000000   0.0000000   0.0000000
 NMagM=    2.7928460   2.7928460   2.7928460   2.7928460   2.7928460   2.7928460   2.7928460   2.7928460   2.7928460   2.7928460

  Atom       161         162         163         164         165         166         167         168         169         170
 IAtWgt=           1          12           1           1           1          12           1           1           1          12
 AtmWgt=   1.0078250  12.0000000   1.0078250   1.0078250   1.0078250  12.0000000   1.0078250   1.0078250   1.0078250  12.0000000
 NucSpn=           1           0           1           1           1           0           1           1           1           0
 AtZEff=   0.0000000   0.0000000   0.0000000   0.0000000   0.0000000   0.0000000   0.0000000   0.0000000   0.0000000   0.0000000
 NQMom=    0.0000000   0.0000000   0.0000000   0.0000000   0.0000000   0.0000000   0.0000000   0.0000000   0.0000000   0.0000000
 NMagM=    2.7928460   0.0000000   2.7928460   2.7928460   2.7928460   0.0000000   2.7928460   2.7928460   2.7928460   0.0000000

  Atom       171         172         173         174         175         176         177
 IAtWgt=           1           1           1          12           1           1           1
 AtmWgt=   1.0078250   1.0078250   1.0078250  12.0000000   1.0078250   1.0078250   1.0078250
 NucSpn=           1           1           1           0           1           1           1
 AtZEff=   0.0000000   0.0000000   0.0000000   0.0000000   0.0000000   0.0000000   0.0000000
 NQMom=    0.0000000   0.0000000   0.0000000   0.0000000   0.0000000   0.0000000   0.0000000
 NMagM=    2.7928460   2.7928460   2.7928460   0.0000000   2.7928460   2.7928460   2.7928460
 Leave Link  101 at Thu Aug  7 13:17:39 2014, MaxMem= 2147483648 cpu:       4.8
 (Enter /opt/g09/l103.exe)

 GradGradGradGradGradGradGradGradGradGradGradGradGradGradGradGradGradGrad
 Berny optimization.
 Initialization pass.
                           ----------------------------
                           !    Initial Parameters    !
                           ! (Angstroms and Degrees)  !
 --------------------------                            --------------------------
 ! Name  Definition              Value          Derivative Info.                !
 --------------------------------------------------------------------------------
 ! R1    R(1,2)                  1.5305         estimate D2E/DX2                !
 ! R2    R(1,5)                  1.5302         estimate D2E/DX2                !
 ! R3    R(1,6)                  1.5366         estimate D2E/DX2                !
 ! R4    R(1,9)                  1.5292         estimate D2E/DX2                !
 ! R5    R(2,3)                  1.413          estimate D2E/DX2                !
 ! R6    R(2,18)                 1.3865         estimate D2E/DX2                !
 ! R7    R(3,4)                  1.4599         estimate D2E/DX2                !
 ! R8    R(3,21)                 1.3996         estimate D2E/DX2                !
 ! R9    R(4,5)                  1.4101         estimate D2E/DX2                !
 ! R10   R(4,14)                 1.3989         estimate D2E/DX2                !
 ! R11   R(5,17)                 1.3839         estimate D2E/DX2                !
 ! R12   R(6,7)                  1.4083         estimate D2E/DX2                !
 ! R13   R(6,10)                 1.3853         estimate D2E/DX2                !
 ! R14   R(7,8)                  1.458          estimate D2E/DX2                !
 ! R15   R(7,13)                 1.3995         estimate D2E/DX2                !
 ! R16   R(8,9)                  1.4129         estimate D2E/DX2                !
 ! R17   R(8,22)                 1.399          estimate D2E/DX2                !
 ! R18   R(9,25)                 1.3881         estimate D2E/DX2                !
 ! R19   R(10,11)                1.4091         estimate D2E/DX2                !
 ! R20   R(10,89)                1.0901         estimate D2E/DX2                !
 ! R21   R(11,12)                1.41           estimate D2E/DX2                !
 ! R22   R(11,26)                1.4153         estimate D2E/DX2                !
 ! R23   R(12,13)                1.3918         estimate D2E/DX2                !
 ! R24   R(12,87)                1.089          estimate D2E/DX2                !
 ! R25   R(13,86)                1.0908         estimate D2E/DX2                !
 ! R26   R(14,15)                1.3928         estimate D2E/DX2                !
 ! R27   R(14,82)                1.0908         estimate D2E/DX2                !
 ! R28   R(15,16)                1.4096         estimate D2E/DX2                !
 ! R29   R(15,83)                1.0892         estimate D2E/DX2                !
 ! R30   R(16,17)                1.4094         estimate D2E/DX2                !
 ! R31   R(16,27)                1.4147         estimate D2E/DX2                !
 ! R32   R(17,88)                1.0896         estimate D2E/DX2                !
 ! R33   R(18,19)                1.4067         estimate D2E/DX2                !
 ! R34   R(18,79)                1.0906         estimate D2E/DX2                !
 ! R35   R(19,20)                1.4057         estimate D2E/DX2                !
 ! R36   R(19,28)                1.4251         estimate D2E/DX2                !
 ! R37   R(20,21)                1.3937         estimate D2E/DX2                !
 ! R38   R(20,80)                1.0899         estimate D2E/DX2                !
 ! R39   R(21,81)                1.0907         estimate D2E/DX2                !
 ! R40   R(22,23)                1.3912         estimate D2E/DX2                !
 ! R41   R(22,84)                1.0907         estimate D2E/DX2                !
 ! R42   R(23,24)                1.4077         estimate D2E/DX2                !
 ! R43   R(23,85)                1.0896         estimate D2E/DX2                !
 ! R44   R(24,25)                1.4088         estimate D2E/DX2                !
 ! R45   R(24,29)                1.42           estimate D2E/DX2                !
 ! R46   R(25,78)                1.0905         estimate D2E/DX2                !
 ! R47   R(26,34)                1.4254         estimate D2E/DX2                !
 ! R48   R(26,35)                1.4131         estimate D2E/DX2                !
 ! R49   R(27,36)                1.4225         estimate D2E/DX2                !
 ! R50   R(27,37)                1.4157         estimate D2E/DX2                !
 ! R51   R(28,31)                1.4152         estimate D2E/DX2                !
 ! R52   R(28,33)                1.4142         estimate D2E/DX2                !
 ! R53   R(29,30)                1.4167         estimate D2E/DX2                !
 ! R54   R(29,32)                1.4173         estimate D2E/DX2                !
 ! R55   R(30,73)                1.404          estimate D2E/DX2                !
 ! R56   R(30,77)                1.4044         estimate D2E/DX2                !
 ! R57   R(31,58)                1.4029         estimate D2E/DX2                !
 ! R58   R(31,62)                1.4041         estimate D2E/DX2                !
 ! R59   R(32,68)                1.4067         estimate D2E/DX2                !
 ! R60   R(32,72)                1.4009         estimate D2E/DX2                !
 ! R61   R(33,63)                1.4019         estimate D2E/DX2                !
 ! R62   R(33,67)                1.4091         estimate D2E/DX2                !
 ! R63   R(34,43)                1.3983         estimate D2E/DX2                !
 ! R64   R(34,47)                1.4055         estimate D2E/DX2                !
 ! R65   R(35,48)                1.4034         estimate D2E/DX2                !
 ! R66   R(35,52)                1.4033         estimate D2E/DX2                !
 ! R67   R(36,38)                1.3991         estimate D2E/DX2                !
 ! R68   R(36,42)                1.4061         estimate D2E/DX2                !
 ! R69   R(37,53)                1.4023         estimate D2E/DX2                !
 ! R70   R(37,57)                1.402          estimate D2E/DX2                !
 ! R71   R(38,39)                1.3966         estimate D2E/DX2                !
 ! R72   R(38,103)               1.0897         estimate D2E/DX2                !
 ! R73   R(39,40)                1.4006         estimate D2E/DX2                !
 ! R74   R(39,102)               1.088          estimate D2E/DX2                !
 ! R75   R(40,41)                1.4034         estimate D2E/DX2                !
 ! R76   R(40,94)                1.3688         estimate D2E/DX2                !
 ! R77   R(41,42)                1.3876         estimate D2E/DX2                !
 ! R78   R(41,98)                1.0895         estimate D2E/DX2                !
 ! R79   R(42,99)                1.0896         estimate D2E/DX2                !
 ! R80   R(43,44)                1.3966         estimate D2E/DX2                !
 ! R81   R(43,100)               1.0897         estimate D2E/DX2                !
 ! R82   R(44,45)                1.4009         estimate D2E/DX2                !
 ! R83   R(44,101)               1.0879         estimate D2E/DX2                !
 ! R84   R(45,46)                1.4035         estimate D2E/DX2                !
 ! R85   R(45,95)                1.3689         estimate D2E/DX2                !
 ! R86   R(46,47)                1.3879         estimate D2E/DX2                !
 ! R87   R(46,104)               1.0897         estimate D2E/DX2                !
 ! R88   R(47,105)               1.0899         estimate D2E/DX2                !
 ! R89   R(48,49)                1.3956         estimate D2E/DX2                !
 ! R90   R(48,145)               1.0875         estimate D2E/DX2                !
 ! R91   R(49,50)                1.4033         estimate D2E/DX2                !
 ! R92   R(49,144)               1.3712         estimate D2E/DX2                !
 ! R93   R(50,51)                1.4035         estimate D2E/DX2                !
 ! R94   R(50,143)               1.0845         estimate D2E/DX2                !
 ! R95   R(51,52)                1.3958         estimate D2E/DX2                !
 ! R96   R(51,142)               1.3707         estimate D2E/DX2                !
 ! R97   R(52,141)               1.0874         estimate D2E/DX2                !
 ! R98   R(53,54)                1.3965         estimate D2E/DX2                !
 ! R99   R(53,137)               1.0877         estimate D2E/DX2                !
 ! R100  R(54,55)                1.4031         estimate D2E/DX2                !
 ! R101  R(54,136)               1.3712         estimate D2E/DX2                !
 ! R102  R(55,56)                1.4035         estimate D2E/DX2                !
 ! R103  R(55,138)               1.0847         estimate D2E/DX2                !
 ! R104  R(56,57)                1.3956         estimate D2E/DX2                !
 ! R105  R(56,139)               1.3704         estimate D2E/DX2                !
 ! R106  R(57,140)               1.0877         estimate D2E/DX2                !
 ! R107  R(58,59)                1.3998         estimate D2E/DX2                !
 ! R108  R(58,130)               1.0861         estimate D2E/DX2                !
 ! R109  R(59,60)                1.3973         estimate D2E/DX2                !
 ! R110  R(59,129)               1.3692         estimate D2E/DX2                !
 ! R111  R(60,61)                1.3981         estimate D2E/DX2                !
 ! R112  R(60,128)               1.0879         estimate D2E/DX2                !
 ! R113  R(61,62)                1.4002         estimate D2E/DX2                !
 ! R114  R(61,126)               1.3699         estimate D2E/DX2                !
 ! R115  R(62,127)               1.0861         estimate D2E/DX2                !
 ! R116  R(63,64)                1.3973         estimate D2E/DX2                !
 ! R117  R(63,111)               1.0894         estimate D2E/DX2                !
 ! R118  R(64,65)                1.3989         estimate D2E/DX2                !
 ! R119  R(64,110)               1.0882         estimate D2E/DX2                !
 ! R120  R(65,66)                1.4033         estimate D2E/DX2                !
 ! R121  R(65,92)                1.3724         estimate D2E/DX2                !
 ! R122  R(66,67)                1.3874         estimate D2E/DX2                !
 ! R123  R(66,112)               1.0899         estimate D2E/DX2                !
 ! R124  R(67,113)               1.0893         estimate D2E/DX2                !
 ! R125  R(68,69)                1.3883         estimate D2E/DX2                !
 ! R126  R(68,109)               1.0897         estimate D2E/DX2                !
 ! R127  R(69,70)                1.4029         estimate D2E/DX2                !
 ! R128  R(69,108)               1.0898         estimate D2E/DX2                !
 ! R129  R(70,71)                1.4003         estimate D2E/DX2                !
 ! R130  R(70,90)                1.3727         estimate D2E/DX2                !
 ! R131  R(71,72)                1.3961         estimate D2E/DX2                !
 ! R132  R(71,107)               1.0881         estimate D2E/DX2                !
 ! R133  R(72,106)               1.0894         estimate D2E/DX2                !
 ! R134  R(73,74)                1.4004         estimate D2E/DX2                !
 ! R135  R(73,131)               1.0857         estimate D2E/DX2                !
 ! R136  R(74,75)                1.3977         estimate D2E/DX2                !
 ! R137  R(74,132)               1.3683         estimate D2E/DX2                !
 ! R138  R(75,76)                1.3975         estimate D2E/DX2                !
 ! R139  R(75,133)               1.088          estimate D2E/DX2                !
 ! R140  R(76,77)                1.4002         estimate D2E/DX2                !
 ! R141  R(76,134)               1.3704         estimate D2E/DX2                !
 ! R142  R(77,135)               1.086          estimate D2E/DX2                !
 ! R143  R(90,91)                1.4223         estimate D2E/DX2                !
 ! R144  R(91,123)               1.1021         estimate D2E/DX2                !
 ! R145  R(91,124)               1.1022         estimate D2E/DX2                !
 ! R146  R(91,125)               1.0948         estimate D2E/DX2                !
 ! R147  R(92,93)                1.4215         estimate D2E/DX2                !
 ! R148  R(93,114)               1.1024         estimate D2E/DX2                !
 ! R149  R(93,115)               1.1023         estimate D2E/DX2                !
 ! R150  R(93,116)               1.095          estimate D2E/DX2                !
 ! R151  R(94,97)                1.4229         estimate D2E/DX2                !
 ! R152  R(95,96)                1.4224         estimate D2E/DX2                !
 ! R153  R(96,117)               1.102          estimate D2E/DX2                !
 ! R154  R(96,118)               1.1019         estimate D2E/DX2                !
 ! R155  R(96,119)               1.0948         estimate D2E/DX2                !
 ! R156  R(97,120)               1.0947         estimate D2E/DX2                !
 ! R157  R(97,121)               1.102          estimate D2E/DX2                !
 ! R158  R(97,122)               1.1018         estimate D2E/DX2                !
 ! R159  R(126,149)              1.4231         estimate D2E/DX2                !
 ! R160  R(129,170)              1.4267         estimate D2E/DX2                !
 ! R161  R(132,166)              1.4256         estimate D2E/DX2                !
 ! R162  R(134,146)              1.4228         estimate D2E/DX2                !
 ! R163  R(136,147)              1.4227         estimate D2E/DX2                !
 ! R164  R(139,162)              1.4228         estimate D2E/DX2                !
 ! R165  R(142,174)              1.4214         estimate D2E/DX2                !
 ! R166  R(144,148)              1.4215         estimate D2E/DX2                !
 ! R167  R(146,150)              1.0949         estimate D2E/DX2                !
 ! R168  R(146,151)              1.1018         estimate D2E/DX2                !
 ! R169  R(146,152)              1.1018         estimate D2E/DX2                !
 ! R170  R(147,153)              1.0948         estimate D2E/DX2                !
 ! R171  R(147,154)              1.1019         estimate D2E/DX2                !
 ! R172  R(147,155)              1.1018         estimate D2E/DX2                !
 ! R173  R(148,156)              1.0948         estimate D2E/DX2                !
 ! R174  R(148,157)              1.102          estimate D2E/DX2                !
 ! R175  R(148,158)              1.1021         estimate D2E/DX2                !
 ! R176  R(149,159)              1.095          estimate D2E/DX2                !
 ! R177  R(149,160)              1.1016         estimate D2E/DX2                !
 ! R178  R(149,161)              1.1018         estimate D2E/DX2                !
 ! R179  R(162,163)              1.0948         estimate D2E/DX2                !
 ! R180  R(162,164)              1.1018         estimate D2E/DX2                !
 ! R181  R(162,165)              1.1017         estimate D2E/DX2                !
 ! R182  R(166,167)              1.0944         estimate D2E/DX2                !
 ! R183  R(166,168)              1.1014         estimate D2E/DX2                !
 ! R184  R(166,169)              1.1013         estimate D2E/DX2                !
 ! R185  R(170,171)              1.0943         estimate D2E/DX2                !
 ! R186  R(170,172)              1.1007         estimate D2E/DX2                !
 ! R187  R(170,173)              1.1014         estimate D2E/DX2                !
 ! R188  R(174,175)              1.0948         estimate D2E/DX2                !
 ! R189  R(174,176)              1.1022         estimate D2E/DX2                !
 ! R190  R(174,177)              1.1022         estimate D2E/DX2                !
 ! A1    A(2,1,5)              101.3353         estimate D2E/DX2                !
 ! A2    A(2,1,6)              110.8534         estimate D2E/DX2                !
 ! A3    A(2,1,9)              117.8966         estimate D2E/DX2                !
 ! A4    A(5,1,6)              112.0828         estimate D2E/DX2                !
 ! A5    A(5,1,9)              113.6798         estimate D2E/DX2                !
 ! A6    A(6,1,9)              101.392          estimate D2E/DX2                !
 ! A7    A(1,2,3)              110.304          estimate D2E/DX2                !
 ! A8    A(1,2,18)             128.3661         estimate D2E/DX2                !
 ! A9    A(3,2,18)             121.0512         estimate D2E/DX2                !
 ! A10   A(2,3,4)              108.7809         estimate D2E/DX2                !
 ! A11   A(2,3,21)             119.7385         estimate D2E/DX2                !
 ! A12   A(4,3,21)             131.4537         estimate D2E/DX2                !
 ! A13   A(3,4,5)              108.6865         estimate D2E/DX2                !
 ! A14   A(3,4,14)             132.0358         estimate D2E/DX2                !
 ! A15   A(5,4,14)             119.2743         estimate D2E/DX2                !
 ! A16   A(1,5,4)              110.5892         estimate D2E/DX2                !
 ! A17   A(1,5,17)             127.8661         estimate D2E/DX2                !
 ! A18   A(4,5,17)             121.5446         estimate D2E/DX2                !
 ! A19   A(1,6,7)              110.4454         estimate D2E/DX2                !
 ! A20   A(1,6,10)             128.0493         estimate D2E/DX2                !
 ! A21   A(7,6,10)             121.5018         estimate D2E/DX2                !
 ! A22   A(6,7,8)              108.7832         estimate D2E/DX2                !
 ! A23   A(6,7,13)             119.3322         estimate D2E/DX2                !
 ! A24   A(8,7,13)             131.8753         estimate D2E/DX2                !
 ! A25   A(7,8,9)              109.0173         estimate D2E/DX2                !
 ! A26   A(7,8,22)             131.1327         estimate D2E/DX2                !
 ! A27   A(9,8,22)             119.7813         estimate D2E/DX2                !
 ! A28   A(1,9,8)              110.3235         estimate D2E/DX2                !
 ! A29   A(1,9,25)             128.3908         estimate D2E/DX2                !
 ! A30   A(8,9,25)             121.0396         estimate D2E/DX2                !
 ! A31   A(6,10,11)            119.2347         estimate D2E/DX2                !
 ! A32   A(6,10,89)            121.0318         estimate D2E/DX2                !
 ! A33   A(11,10,89)           119.7335         estimate D2E/DX2                !
 ! A34   A(10,11,12)           119.3221         estimate D2E/DX2                !
 ! A35   A(10,11,26)           120.0077         estimate D2E/DX2                !
 ! A36   A(12,11,26)           120.6596         estimate D2E/DX2                !
 ! A37   A(11,12,13)           121.0402         estimate D2E/DX2                !
 ! A38   A(11,12,87)           118.9644         estimate D2E/DX2                !
 ! A39   A(13,12,87)           119.9952         estimate D2E/DX2                !
 ! A40   A(7,13,12)            119.5675         estimate D2E/DX2                !
 ! A41   A(7,13,86)            120.8141         estimate D2E/DX2                !
 ! A42   A(12,13,86)           119.6122         estimate D2E/DX2                !
 ! A43   A(4,14,15)            119.5513         estimate D2E/DX2                !
 ! A44   A(4,14,82)            120.8669         estimate D2E/DX2                !
 ! A45   A(15,14,82)           119.5804         estimate D2E/DX2                !
 ! A46   A(14,15,16)           121.0782         estimate D2E/DX2                !
 ! A47   A(14,15,83)           119.9564         estimate D2E/DX2                !
 ! A48   A(16,15,83)           118.9652         estimate D2E/DX2                !
 ! A49   A(15,16,17)           119.2962         estimate D2E/DX2                !
 ! A50   A(15,16,27)           120.3711         estimate D2E/DX2                !
 ! A51   A(17,16,27)           120.3279         estimate D2E/DX2                !
 ! A52   A(5,17,16)            119.2519         estimate D2E/DX2                !
 ! A53   A(5,17,88)            120.8829         estimate D2E/DX2                !
 ! A54   A(16,17,88)           119.8645         estimate D2E/DX2                !
 ! A55   A(2,18,19)            119.0993         estimate D2E/DX2                !
 ! A56   A(2,18,79)            121.3983         estimate D2E/DX2                !
 ! A57   A(19,18,79)           119.4643         estimate D2E/DX2                !
 ! A58   A(18,19,20)           119.9224         estimate D2E/DX2                !
 ! A59   A(18,19,28)           119.913          estimate D2E/DX2                !
 ! A60   A(20,19,28)           120.1443         estimate D2E/DX2                !
 ! A61   A(19,20,21)           120.8713         estimate D2E/DX2                !
 ! A62   A(19,20,80)           118.6757         estimate D2E/DX2                !
 ! A63   A(21,20,80)           120.4531         estimate D2E/DX2                !
 ! A64   A(3,21,20)            119.2908         estimate D2E/DX2                !
 ! A65   A(3,21,81)            120.7905         estimate D2E/DX2                !
 ! A66   A(20,21,81)           119.9175         estimate D2E/DX2                !
 ! A67   A(8,22,23)            119.2913         estimate D2E/DX2                !
 ! A68   A(8,22,84)            120.832          estimate D2E/DX2                !
 ! A69   A(23,22,84)           119.8728         estimate D2E/DX2                !
 ! A70   A(22,23,24)           121.0522         estimate D2E/DX2                !
 ! A71   A(22,23,85)           120.3124         estimate D2E/DX2                !
 ! A72   A(24,23,85)           118.6259         estimate D2E/DX2                !
 ! A73   A(23,24,25)           119.6952         estimate D2E/DX2                !
 ! A74   A(23,24,29)           119.4387         estimate D2E/DX2                !
 ! A75   A(25,24,29)           120.8311         estimate D2E/DX2                !
 ! A76   A(9,25,24)            119.0992         estimate D2E/DX2                !
 ! A77   A(9,25,78)            121.2288         estimate D2E/DX2                !
 ! A78   A(24,25,78)           119.6132         estimate D2E/DX2                !
 ! A79   A(11,26,34)           118.8675         estimate D2E/DX2                !
 ! A80   A(11,26,35)           121.3866         estimate D2E/DX2                !
 ! A81   A(34,26,35)           119.7453         estimate D2E/DX2                !
 ! A82   A(16,27,36)           119.7042         estimate D2E/DX2                !
 ! A83   A(16,27,37)           120.4997         estimate D2E/DX2                !
 ! A84   A(36,27,37)           119.7644         estimate D2E/DX2                !
 ! A85   A(19,28,31)           118.9462         estimate D2E/DX2                !
 ! A86   A(19,28,33)           119.3061         estimate D2E/DX2                !
 ! A87   A(31,28,33)           121.6992         estimate D2E/DX2                !
 ! A88   A(24,29,30)           119.2053         estimate D2E/DX2                !
 ! A89   A(24,29,32)           120.1125         estimate D2E/DX2                !
 ! A90   A(30,29,32)           120.6816         estimate D2E/DX2                !
 ! A91   A(29,30,73)           119.3894         estimate D2E/DX2                !
 ! A92   A(29,30,77)           120.1532         estimate D2E/DX2                !
 ! A93   A(73,30,77)           120.4574         estimate D2E/DX2                !
 ! A94   A(28,31,58)           118.8641         estimate D2E/DX2                !
 ! A95   A(28,31,62)           120.5344         estimate D2E/DX2                !
 ! A96   A(58,31,62)           120.6014         estimate D2E/DX2                !
 ! A97   A(29,32,68)           120.6041         estimate D2E/DX2                !
 ! A98   A(29,32,72)           121.0534         estimate D2E/DX2                !
 ! A99   A(68,32,72)           118.3384         estimate D2E/DX2                !
 ! A100  A(28,33,63)           120.8384         estimate D2E/DX2                !
 ! A101  A(28,33,67)           121.0764         estimate D2E/DX2                !
 ! A102  A(63,33,67)           118.0805         estimate D2E/DX2                !
 ! A103  A(26,34,43)           120.8781         estimate D2E/DX2                !
 ! A104  A(26,34,47)           120.4753         estimate D2E/DX2                !
 ! A105  A(43,34,47)           118.6465         estimate D2E/DX2                !
 ! A106  A(26,35,48)           119.8968         estimate D2E/DX2                !
 ! A107  A(26,35,52)           120.3635         estimate D2E/DX2                !
 ! A108  A(48,35,52)           119.7373         estimate D2E/DX2                !
 ! A109  A(27,36,38)           120.8026         estimate D2E/DX2                !
 ! A110  A(27,36,42)           120.7267         estimate D2E/DX2                !
 ! A111  A(38,36,42)           118.4701         estimate D2E/DX2                !
 ! A112  A(27,37,53)           120.167          estimate D2E/DX2                !
 ! A113  A(27,37,57)           119.9108         estimate D2E/DX2                !
 ! A114  A(53,37,57)           119.9222         estimate D2E/DX2                !
 ! A115  A(36,38,39)           121.1165         estimate D2E/DX2                !
 ! A116  A(36,38,103)          119.3867         estimate D2E/DX2                !
 ! A117  A(39,38,103)          119.4944         estimate D2E/DX2                !
 ! A118  A(38,39,40)           119.8904         estimate D2E/DX2                !
 ! A119  A(38,39,102)          119.0627         estimate D2E/DX2                !
 ! A120  A(40,39,102)          121.0429         estimate D2E/DX2                !
 ! A121  A(39,40,41)           119.3209         estimate D2E/DX2                !
 ! A122  A(39,40,94)           124.7361         estimate D2E/DX2                !
 ! A123  A(41,40,94)           115.943          estimate D2E/DX2                !
 ! A124  A(40,41,42)           120.388          estimate D2E/DX2                !
 ! A125  A(40,41,98)           118.7509         estimate D2E/DX2                !
 ! A126  A(42,41,98)           120.8527         estimate D2E/DX2                !
 ! A127  A(36,42,41)           120.8033         estimate D2E/DX2                !
 ! A128  A(36,42,99)           119.4098         estimate D2E/DX2                !
 ! A129  A(41,42,99)           119.7868         estimate D2E/DX2                !
 ! A130  A(34,43,44)           121.076          estimate D2E/DX2                !
 ! A131  A(34,43,100)          119.3492         estimate D2E/DX2                !
 ! A132  A(44,43,100)          119.5729         estimate D2E/DX2                !
 ! A133  A(43,44,45)           119.8115         estimate D2E/DX2                !
 ! A134  A(43,44,101)          119.1101         estimate D2E/DX2                !
 ! A135  A(45,44,101)          121.0734         estimate D2E/DX2                !
 ! A136  A(44,45,46)           119.3968         estimate D2E/DX2                !
 ! A137  A(44,45,95)           124.645          estimate D2E/DX2                !
 ! A138  A(46,45,95)           115.9581         estimate D2E/DX2                !
 ! A139  A(45,46,47)           120.3861         estimate D2E/DX2                !
 ! A140  A(45,46,104)          118.9483         estimate D2E/DX2                !
 ! A141  A(47,46,104)          120.6602         estimate D2E/DX2                !
 ! A142  A(34,47,46)           120.6755         estimate D2E/DX2                !
 ! A143  A(34,47,105)          119.8504         estimate D2E/DX2                !
 ! A144  A(46,47,105)          119.4739         estimate D2E/DX2                !
 ! A145  A(35,48,49)           119.7199         estimate D2E/DX2                !
 ! A146  A(35,48,145)          121.1346         estimate D2E/DX2                !
 ! A147  A(49,48,145)          119.1451         estimate D2E/DX2                !
 ! A148  A(48,49,50)           121.3994         estimate D2E/DX2                !
 ! A149  A(48,49,144)          115.2608         estimate D2E/DX2                !
 ! A150  A(50,49,144)          123.3349         estimate D2E/DX2                !
 ! A151  A(49,50,51)           118.0262         estimate D2E/DX2                !
 ! A152  A(49,50,143)          121.0336         estimate D2E/DX2                !
 ! A153  A(51,50,143)          120.9402         estimate D2E/DX2                !
 ! A154  A(50,51,52)           121.4414         estimate D2E/DX2                !
 ! A155  A(50,51,142)          123.3087         estimate D2E/DX2                !
 ! A156  A(52,51,142)          115.2438         estimate D2E/DX2                !
 ! A157  A(35,52,51)           119.6665         estimate D2E/DX2                !
 ! A158  A(35,52,141)          121.2257         estimate D2E/DX2                !
 ! A159  A(51,52,141)          119.1068         estimate D2E/DX2                !
 ! A160  A(37,53,54)           119.5789         estimate D2E/DX2                !
 ! A161  A(37,53,137)          121.1438         estimate D2E/DX2                !
 ! A162  A(54,53,137)          119.2771         estimate D2E/DX2                !
 ! A163  A(53,54,55)           121.3799         estimate D2E/DX2                !
 ! A164  A(53,54,136)          115.2329         estimate D2E/DX2                !
 ! A165  A(55,54,136)          123.3789         estimate D2E/DX2                !
 ! A166  A(54,55,56)           118.114          estimate D2E/DX2                !
 ! A167  A(54,55,138)          120.9658         estimate D2E/DX2                !
 ! A168  A(56,55,138)          120.9202         estimate D2E/DX2                !
 ! A169  A(55,56,57)           121.3385         estimate D2E/DX2                !
 ! A170  A(55,56,139)          123.4358         estimate D2E/DX2                !
 ! A171  A(57,56,139)          115.2198         estimate D2E/DX2                !
 ! A172  A(37,57,56)           119.6574         estimate D2E/DX2                !
 ! A173  A(37,57,140)          120.9809         estimate D2E/DX2                !
 ! A174  A(56,57,140)          119.3614         estimate D2E/DX2                !
 ! A175  A(31,58,59)           119.2851         estimate D2E/DX2                !
 ! A176  A(31,58,130)          119.0554         estimate D2E/DX2                !
 ! A177  A(59,58,130)          121.6522         estimate D2E/DX2                !
 ! A178  A(58,59,60)           120.8457         estimate D2E/DX2                !
 ! A179  A(58,59,129)          123.4895         estimate D2E/DX2                !
 ! A180  A(60,59,129)          115.6557         estimate D2E/DX2                !
 ! A181  A(59,60,61)           119.202          estimate D2E/DX2                !
 ! A182  A(59,60,128)          120.4235         estimate D2E/DX2                !
 ! A183  A(61,60,128)          120.3676         estimate D2E/DX2                !
 ! A184  A(60,61,62)           121.0644         estimate D2E/DX2                !
 ! A185  A(60,61,126)          115.2854         estimate D2E/DX2                !
 ! A186  A(62,61,126)          123.6478         estimate D2E/DX2                !
 ! A187  A(31,62,61)           119.0006         estimate D2E/DX2                !
 ! A188  A(31,62,127)          119.2467         estimate D2E/DX2                !
 ! A189  A(61,62,127)          121.7488         estimate D2E/DX2                !
 ! A190  A(33,63,64)           121.2706         estimate D2E/DX2                !
 ! A191  A(33,63,111)          119.5125         estimate D2E/DX2                !
 ! A192  A(64,63,111)          119.2169         estimate D2E/DX2                !
 ! A193  A(63,64,65)           120.023          estimate D2E/DX2                !
 ! A194  A(63,64,110)          118.8252         estimate D2E/DX2                !
 ! A195  A(65,64,110)          121.1436         estimate D2E/DX2                !
 ! A196  A(64,65,66)           119.1401         estimate D2E/DX2                !
 ! A197  A(64,65,92)           124.8509         estimate D2E/DX2                !
 ! A198  A(66,65,92)           116.009          estimate D2E/DX2                !
 ! A199  A(65,66,67)           120.597          estimate D2E/DX2                !
 ! A200  A(65,66,112)          118.7201         estimate D2E/DX2                !
 ! A201  A(67,66,112)          120.6762         estimate D2E/DX2                !
 ! A202  A(33,67,66)           120.8777         estimate D2E/DX2                !
 ! A203  A(33,67,113)          119.4231         estimate D2E/DX2                !
 ! A204  A(66,67,113)          119.699          estimate D2E/DX2                !
 ! A205  A(32,68,69)           120.8842         estimate D2E/DX2                !
 ! A206  A(32,68,109)          119.4683         estimate D2E/DX2                !
 ! A207  A(69,68,109)          119.6465         estimate D2E/DX2                !
 ! A208  A(68,69,70)           120.3421         estimate D2E/DX2                !
 ! A209  A(68,69,108)          120.5153         estimate D2E/DX2                !
 ! A210  A(70,69,108)          119.1362         estimate D2E/DX2                !
 ! A211  A(69,70,71)           119.3684         estimate D2E/DX2                !
 ! A212  A(69,70,90)           116.0497         estimate D2E/DX2                !
 ! A213  A(71,70,90)           124.5819         estimate D2E/DX2                !
 ! A214  A(70,71,72)           119.9165         estimate D2E/DX2                !
 ! A215  A(70,71,107)          121.1123         estimate D2E/DX2                !
 ! A216  A(72,71,107)          118.9672         estimate D2E/DX2                !
 ! A217  A(32,72,71)           121.1414         estimate D2E/DX2                !
 ! A218  A(32,72,106)          119.3877         estimate D2E/DX2                !
 ! A219  A(71,72,106)          119.4673         estimate D2E/DX2                !
 ! A220  A(30,73,74)           119.312          estimate D2E/DX2                !
 ! A221  A(30,73,131)          119.2146         estimate D2E/DX2                !
 ! A222  A(74,73,131)          121.4705         estimate D2E/DX2                !
 ! A223  A(73,74,75)           120.8876         estimate D2E/DX2                !
 ! A224  A(73,74,132)          123.5741         estimate D2E/DX2                !
 ! A225  A(75,74,132)          115.5306         estimate D2E/DX2                !
 ! A226  A(74,75,76)           119.1333         estimate D2E/DX2                !
 ! A227  A(74,75,133)          120.4256         estimate D2E/DX2                !
 ! A228  A(76,75,133)          120.4404         estimate D2E/DX2                !
 ! A229  A(75,76,77)           121.1129         estimate D2E/DX2                !
 ! A230  A(75,76,134)          115.3102         estimate D2E/DX2                !
 ! A231  A(77,76,134)          123.5717         estimate D2E/DX2                !
 ! A232  A(30,77,76)           119.0913         estimate D2E/DX2                !
 ! A233  A(30,77,135)          119.2877         estimate D2E/DX2                !
 ! A234  A(76,77,135)          121.6192         estimate D2E/DX2                !
 ! A235  A(70,90,91)           117.3503         estimate D2E/DX2                !
 ! A236  A(90,91,123)          111.5249         estimate D2E/DX2                !
 ! A237  A(90,91,124)          111.6402         estimate D2E/DX2                !
 ! A238  A(90,91,125)          105.9747         estimate D2E/DX2                !
 ! A239  A(123,91,124)         109.0779         estimate D2E/DX2                !
 ! A240  A(123,91,125)         109.2607         estimate D2E/DX2                !
 ! A241  A(124,91,125)         109.285          estimate D2E/DX2                !
 ! A242  A(65,92,93)           117.2442         estimate D2E/DX2                !
 ! A243  A(92,93,114)          111.6069         estimate D2E/DX2                !
 ! A244  A(92,93,115)          111.5857         estimate D2E/DX2                !
 ! A245  A(92,93,116)          105.9795         estimate D2E/DX2                !
 ! A246  A(114,93,115)         109.0031         estimate D2E/DX2                !
 ! A247  A(114,93,116)         109.2731         estimate D2E/DX2                !
 ! A248  A(115,93,116)         109.3193         estimate D2E/DX2                !
 ! A249  A(40,94,97)           117.4467         estimate D2E/DX2                !
 ! A250  A(45,95,96)           117.4766         estimate D2E/DX2                !
 ! A251  A(95,96,117)          111.5647         estimate D2E/DX2                !
 ! A252  A(95,96,118)          111.5085         estimate D2E/DX2                !
 ! A253  A(95,96,119)          105.9113         estimate D2E/DX2                !
 ! A254  A(117,96,118)         109.1662         estimate D2E/DX2                !
 ! A255  A(117,96,119)         109.2965         estimate D2E/DX2                !
 ! A256  A(118,96,119)         109.3149         estimate D2E/DX2                !
 ! A257  A(94,97,120)          105.9125         estimate D2E/DX2                !
 ! A258  A(94,97,121)          111.501          estimate D2E/DX2                !
 ! A259  A(94,97,122)          111.4938         estimate D2E/DX2                !
 ! A260  A(120,97,121)         109.3353         estimate D2E/DX2                !
 ! A261  A(120,97,122)         109.331          estimate D2E/DX2                !
 ! A262  A(121,97,122)         109.1901         estimate D2E/DX2                !
 ! A263  A(61,126,149)         117.6421         estimate D2E/DX2                !
 ! A264  A(59,129,170)         117.49           estimate D2E/DX2                !
 ! A265  A(74,132,166)         117.6714         estimate D2E/DX2                !
 ! A266  A(76,134,146)         117.6657         estimate D2E/DX2                !
 ! A267  A(54,136,147)         117.9092         estimate D2E/DX2                !
 ! A268  A(56,139,162)         118.0535         estimate D2E/DX2                !
 ! A269  A(51,142,174)         117.9324         estimate D2E/DX2                !
 ! A270  A(49,144,148)         117.8907         estimate D2E/DX2                !
 ! A271  A(134,146,150)        105.8226         estimate D2E/DX2                !
 ! A272  A(134,146,151)        111.6287         estimate D2E/DX2                !
 ! A273  A(134,146,152)        111.5966         estimate D2E/DX2                !
 ! A274  A(150,146,151)        109.3399         estimate D2E/DX2                !
 ! A275  A(150,146,152)        109.2737         estimate D2E/DX2                !
 ! A276  A(151,146,152)        109.099          estimate D2E/DX2                !
 ! A277  A(136,147,153)        105.8351         estimate D2E/DX2                !
 ! A278  A(136,147,154)        111.6112         estimate D2E/DX2                !
 ! A279  A(136,147,155)        111.5747         estimate D2E/DX2                !
 ! A280  A(153,147,154)        109.2378         estimate D2E/DX2                !
 ! A281  A(153,147,155)        109.2268         estimate D2E/DX2                !
 ! A282  A(154,147,155)        109.2643         estimate D2E/DX2                !
 ! A283  A(144,148,156)        105.8521         estimate D2E/DX2                !
 ! A284  A(144,148,157)        111.6473         estimate D2E/DX2                !
 ! A285  A(144,148,158)        111.6234         estimate D2E/DX2                !
 ! A286  A(156,148,157)        109.2376         estimate D2E/DX2                !
 ! A287  A(156,148,158)        109.1895         estimate D2E/DX2                !
 ! A288  A(157,148,158)        109.2003         estimate D2E/DX2                !
 ! A289  A(126,149,159)        105.7864         estimate D2E/DX2                !
 ! A290  A(126,149,160)        111.5963         estimate D2E/DX2                !
 ! A291  A(126,149,161)        111.5588         estimate D2E/DX2                !
 ! A292  A(159,149,160)        109.3573         estimate D2E/DX2                !
 ! A293  A(159,149,161)        109.3019         estimate D2E/DX2                !
 ! A294  A(160,149,161)        109.159          estimate D2E/DX2                !
 ! A295  A(139,162,163)        105.8118         estimate D2E/DX2                !
 ! A296  A(139,162,164)        111.5541         estimate D2E/DX2                !
 ! A297  A(139,162,165)        111.5158         estimate D2E/DX2                !
 ! A298  A(163,162,164)        109.2737         estimate D2E/DX2                !
 ! A299  A(163,162,165)        109.2273         estimate D2E/DX2                !
 ! A300  A(164,162,165)        109.3653         estimate D2E/DX2                !
 ! A301  A(132,166,167)        106.0701         estimate D2E/DX2                !
 ! A302  A(132,166,168)        111.5702         estimate D2E/DX2                !
 ! A303  A(132,166,169)        111.5596         estimate D2E/DX2                !
 ! A304  A(167,166,168)        109.3529         estimate D2E/DX2                !
 ! A305  A(167,166,169)        109.1333         estimate D2E/DX2                !
 ! A306  A(168,166,169)        109.078          estimate D2E/DX2                !
 ! A307  A(129,170,171)        105.7965         estimate D2E/DX2                !
 ! A308  A(129,170,172)        111.672          estimate D2E/DX2                !
 ! A309  A(129,170,173)        111.0479         estimate D2E/DX2                !
 ! A310  A(171,170,172)        108.8133         estimate D2E/DX2                !
 ! A311  A(171,170,173)        109.9663         estimate D2E/DX2                !
 ! A312  A(172,170,173)        109.4622         estimate D2E/DX2                !
 ! A313  A(142,174,175)        105.8544         estimate D2E/DX2                !
 ! A314  A(142,174,176)        111.6424         estimate D2E/DX2                !
 ! A315  A(142,174,177)        111.6366         estimate D2E/DX2                !
 ! A316  A(175,174,176)        109.2257         estimate D2E/DX2                !
 ! A317  A(175,174,177)        109.1737         estimate D2E/DX2                !
 ! A318  A(176,174,177)        109.2161         estimate D2E/DX2                !
 ! D1    D(5,1,2,3)             -5.5084         estimate D2E/DX2                !
 ! D2    D(5,1,2,18)          -179.4101         estimate D2E/DX2                !
 ! D3    D(6,1,2,3)            113.6131         estimate D2E/DX2                !
 ! D4    D(6,1,2,18)           -60.2886         estimate D2E/DX2                !
 ! D5    D(9,1,2,3)           -130.2305         estimate D2E/DX2                !
 ! D6    D(9,1,2,18)            55.8678         estimate D2E/DX2                !
 ! D7    D(2,1,5,4)              3.8705         estimate D2E/DX2                !
 ! D8    D(2,1,5,17)          -176.0315         estimate D2E/DX2                !
 ! D9    D(6,1,5,4)           -114.3672         estimate D2E/DX2                !
 ! D10   D(6,1,5,17)            65.7309         estimate D2E/DX2                !
 ! D11   D(9,1,5,4)            131.3854         estimate D2E/DX2                !
 ! D12   D(9,1,5,17)           -48.5166         estimate D2E/DX2                !
 ! D13   D(2,1,6,7)            125.3453         estimate D2E/DX2                !
 ! D14   D(2,1,6,10)           -53.9782         estimate D2E/DX2                !
 ! D15   D(5,1,6,7)           -122.2266         estimate D2E/DX2                !
 ! D16   D(5,1,6,10)            58.45           estimate D2E/DX2                !
 ! D17   D(9,1,6,7)             -0.6339         estimate D2E/DX2                !
 ! D18   D(9,1,6,10)          -179.9573         estimate D2E/DX2                !
 ! D19   D(2,1,9,8)           -121.819          estimate D2E/DX2                !
 ! D20   D(2,1,9,25)            63.9125         estimate D2E/DX2                !
 ! D21   D(5,1,9,8)            119.8213         estimate D2E/DX2                !
 ! D22   D(5,1,9,25)           -54.4472         estimate D2E/DX2                !
 ! D23   D(6,1,9,8)             -0.6511         estimate D2E/DX2                !
 ! D24   D(6,1,9,25)          -174.9196         estimate D2E/DX2                !
 ! D25   D(1,2,3,4)              5.2657         estimate D2E/DX2                !
 ! D26   D(1,2,3,21)          -173.0578         estimate D2E/DX2                !
 ! D27   D(18,2,3,4)           179.6862         estimate D2E/DX2                !
 ! D28   D(18,2,3,21)            1.3627         estimate D2E/DX2                !
 ! D29   D(1,2,18,19)          171.4848         estimate D2E/DX2                !
 ! D30   D(1,2,18,79)           -6.2557         estimate D2E/DX2                !
 ! D31   D(3,2,18,19)           -1.8366         estimate D2E/DX2                !
 ! D32   D(3,2,18,79)         -179.5772         estimate D2E/DX2                !
 ! D33   D(2,3,4,5)             -2.6505         estimate D2E/DX2                !
 ! D34   D(2,3,4,14)           176.654          estimate D2E/DX2                !
 ! D35   D(21,3,4,5)           175.4072         estimate D2E/DX2                !
 ! D36   D(21,3,4,14)           -5.2883         estimate D2E/DX2                !
 ! D37   D(2,3,21,20)            0.0935         estimate D2E/DX2                !
 ! D38   D(2,3,21,81)          179.6985         estimate D2E/DX2                !
 ! D39   D(4,3,21,20)         -177.7886         estimate D2E/DX2                !
 ! D40   D(4,3,21,81)            1.8164         estimate D2E/DX2                !
 ! D41   D(3,4,5,1)             -1.0081         estimate D2E/DX2                !
 ! D42   D(3,4,5,17)           178.901          estimate D2E/DX2                !
 ! D43   D(14,4,5,1)           179.5841         estimate D2E/DX2                !
 ! D44   D(14,4,5,17)           -0.5067         estimate D2E/DX2                !
 ! D45   D(3,4,14,15)         -179.2576         estimate D2E/DX2                !
 ! D46   D(3,4,14,82)            1.1787         estimate D2E/DX2                !
 ! D47   D(5,4,14,15)           -0.0129         estimate D2E/DX2                !
 ! D48   D(5,4,14,82)         -179.5767         estimate D2E/DX2                !
 ! D49   D(1,5,17,16)         -179.5432         estimate D2E/DX2                !
 ! D50   D(1,5,17,88)            0.7721         estimate D2E/DX2                !
 ! D51   D(4,5,17,16)            0.5645         estimate D2E/DX2                !
 ! D52   D(4,5,17,88)         -179.1201         estimate D2E/DX2                !
 ! D53   D(1,6,7,8)              1.6546         estimate D2E/DX2                !
 ! D54   D(1,6,7,13)          -179.3279         estimate D2E/DX2                !
 ! D55   D(10,6,7,8)          -178.9703         estimate D2E/DX2                !
 ! D56   D(10,6,7,13)            0.0472         estimate D2E/DX2                !
 ! D57   D(1,6,10,11)          179.4547         estimate D2E/DX2                !
 ! D58   D(1,6,10,89)           -0.5585         estimate D2E/DX2                !
 ! D59   D(7,6,10,11)            0.1982         estimate D2E/DX2                !
 ! D60   D(7,6,10,89)         -179.8149         estimate D2E/DX2                !
 ! D61   D(6,7,8,9)             -2.0717         estimate D2E/DX2                !
 ! D62   D(6,7,8,22)           174.8309         estimate D2E/DX2                !
 ! D63   D(13,7,8,9)           179.0787         estimate D2E/DX2                !
 ! D64   D(13,7,8,22)           -4.0187         estimate D2E/DX2                !
 ! D65   D(6,7,13,12)           -0.3745         estimate D2E/DX2                !
 ! D66   D(6,7,13,86)         -179.4644         estimate D2E/DX2                !
 ! D67   D(8,7,13,12)          178.3762         estimate D2E/DX2                !
 ! D68   D(8,7,13,86)           -0.7137         estimate D2E/DX2                !
 ! D69   D(7,8,9,1)              1.6695         estimate D2E/DX2                !
 ! D70   D(7,8,9,25)           176.4278         estimate D2E/DX2                !
 ! D71   D(22,8,9,1)          -175.6429         estimate D2E/DX2                !
 ! D72   D(22,8,9,25)           -0.8846         estimate D2E/DX2                !
 ! D73   D(7,8,22,23)         -175.1859         estimate D2E/DX2                !
 ! D74   D(7,8,22,84)            4.0894         estimate D2E/DX2                !
 ! D75   D(9,8,22,23)            1.4399         estimate D2E/DX2                !
 ! D76   D(9,8,22,84)         -179.2849         estimate D2E/DX2                !
 ! D77   D(1,9,25,24)          172.7981         estimate D2E/DX2                !
 ! D78   D(1,9,25,78)           -4.4018         estimate D2E/DX2                !
 ! D79   D(8,9,25,24)           -0.9269         estimate D2E/DX2                !
 ! D80   D(8,9,25,78)         -178.1268         estimate D2E/DX2                !
 ! D81   D(6,10,11,12)          -0.116          estimate D2E/DX2                !
 ! D82   D(6,10,11,26)         178.7107         estimate D2E/DX2                !
 ! D83   D(89,10,11,12)        179.897          estimate D2E/DX2                !
 ! D84   D(89,10,11,26)         -1.2763         estimate D2E/DX2                !
 ! D85   D(10,11,12,13)         -0.2137         estimate D2E/DX2                !
 ! D86   D(10,11,12,87)        179.5815         estimate D2E/DX2                !
 ! D87   D(26,11,12,13)       -179.0326         estimate D2E/DX2                !
 ! D88   D(26,11,12,87)          0.7626         estimate D2E/DX2                !
 ! D89   D(10,11,26,34)        -38.5908         estimate D2E/DX2                !
 ! D90   D(10,11,26,35)        141.1241         estimate D2E/DX2                !
[...]
 Alpha virt. eigenvalues --    2.68950   2.69091   2.69630   2.70021   2.70080
 Alpha virt. eigenvalues --    2.70474   2.70627   2.70996   2.71767   2.71894
 Alpha virt. eigenvalues --    2.72164   2.72706   2.72838   2.73107   2.73462
 Alpha virt. eigenvalues --    2.74152   2.74464   2.74833   2.75470   2.76589
 Alpha virt. eigenvalues --    2.76805   2.76911   2.77412   2.77781   2.77796
 Alpha virt. eigenvalues --    2.78382   2.78720   2.79461   2.79908   2.80897
 Alpha virt. eigenvalues --    2.80987   2.81661   2.81902   2.82480   2.82851
 Alpha virt. eigenvalues --    2.83063   2.83345   2.84324   2.85129   2.85368
 Alpha virt. eigenvalues --    2.86569   2.86775   2.87102   2.87717   2.89072
 Alpha virt. eigenvalues --    2.89774   2.90261   2.90680   2.91335   2.92180
 Alpha virt. eigenvalues --    2.92767   2.92827   2.93165   2.94056   2.96507
 Alpha virt. eigenvalues --    2.96990   2.97265   2.97719   2.97893   2.98137
 Alpha virt. eigenvalues --    2.98849   2.98972   2.99147   2.99432   2.99588
 Alpha virt. eigenvalues --    2.99645   2.99988   3.00434   3.00996   3.01212
 Alpha virt. eigenvalues --    3.01687   3.02447   3.02685   3.03468   3.03516
 Alpha virt. eigenvalues --    3.06193   3.07979   3.08275   3.08878   3.09585
 Alpha virt. eigenvalues --    3.09857   3.11071   3.11355   3.12152   3.12858
 Alpha virt. eigenvalues --    3.14350   3.15070   3.17444   3.20180   3.22697
 Alpha virt. eigenvalues --    3.23105   3.24417   3.25994   3.28550   3.29631
 Alpha virt. eigenvalues --    3.29787   3.30204   3.32161   3.32529   3.37043
 Alpha virt. eigenvalues --    3.38641   3.43800   3.44327   3.44531   3.44621
 Alpha virt. eigenvalues --    3.45844   3.46303   3.46782   3.46905   3.52683
 Alpha virt. eigenvalues --    3.52893   4.04810   4.05395   4.05481   4.05649
 Alpha virt. eigenvalues --    4.05686   4.05896   4.06176   4.06360   4.06459
 Alpha virt. eigenvalues --    4.07233   4.07481   4.07775   4.09774   4.09834
 Alpha virt. eigenvalues --    4.12290   4.12653   4.12807   4.13470   4.13706
 Alpha virt. eigenvalues --    4.13828   4.13927   4.14055   4.14322   4.14504
 Alpha virt. eigenvalues --    4.14991   4.15426   4.15828   4.16104   4.16447
 Alpha virt. eigenvalues --    4.16718   4.17097   4.17816   4.18034   4.18916
 Alpha virt. eigenvalues --    4.18953   4.19084   4.19973   4.21873   4.22525
 Alpha virt. eigenvalues --    4.22701   4.23449   4.23799   4.24000   4.24193
 Alpha virt. eigenvalues --    4.24384   4.24502   4.24751   4.24870   4.25285
 Alpha virt. eigenvalues --    4.25329   4.25841   4.25999   4.31945   4.32001
 Alpha virt. eigenvalues --    4.32916   4.33324   4.33461   4.33703   4.34168
 Alpha virt. eigenvalues --    4.34506   4.35071   4.35607   4.35896   4.36188
 Alpha virt. eigenvalues --    4.36823   4.36989   4.37560   4.37662   4.38371
 Alpha virt. eigenvalues --    4.39022   4.39249   4.40003   4.46786   4.47600
 Alpha virt. eigenvalues --    4.48399   4.49644   4.50408   4.50501   4.50943
 Alpha virt. eigenvalues --    4.52340   4.53618   4.55779   4.56210   4.57794
 Alpha virt. eigenvalues --    4.58751   4.59087   4.64639   4.66527   4.67251
 Alpha virt. eigenvalues --    4.77685   4.79309   4.79385   4.79727   4.79996
 Alpha virt. eigenvalues --    4.80791   4.81032   4.81924   4.82010   4.85409
 Alpha virt. eigenvalues --    4.85871   4.89688
          Condensed to atoms (all electrons):
 Mulliken atomic charges:
              1
     1  C   -0.272344
     2  C    0.120307
     3  C    0.076299
     4  C    0.073023
     5  C    0.122173
     6  C    0.129579
     7  C    0.074567
     8  C    0.070928
     9  C    0.113690
    10  C   -0.241034
    11  C    0.288248
    12  C   -0.171152
    13  C   -0.202535
    14  C   -0.202871
    15  C   -0.180070
    16  C    0.300091
    17  C   -0.243145
    18  C   -0.222769
    19  C    0.253485
    20  C   -0.164086
    21  C   -0.205912
    22  C   -0.204182
    23  C   -0.162522
    24  C    0.258560
    25  C   -0.225398
    26  N   -0.671008
    27  N   -0.669458
    28  N   -0.660530
    29  N   -0.661168
    30  C    0.298992
    31  C    0.293355
    32  C    0.293489
    33  C    0.300634
    34  C    0.267019
    35  C    0.319145
    36  C    0.261269
    37  C    0.304137
    38  C   -0.162464
    39  C   -0.205855
    40  C    0.380351
    41  C   -0.184060
    42  C   -0.160085
    43  C   -0.159871
    44  C   -0.206048
    45  C    0.381421
    46  C   -0.197391
    47  C   -0.172281
    48  C   -0.250476
    49  C    0.387086
    50  C   -0.289065
    51  C    0.386342
    52  C   -0.248534
    53  C   -0.248218
    54  C    0.386932
    55  C   -0.280342
    56  C    0.385358
    57  C   -0.241826
    58  C   -0.256971
    59  C    0.389228
    60  C   -0.239130
    61  C    0.385061
    62  C   -0.256072
    63  C   -0.185580
    64  C   -0.204970
    65  C    0.375127
    66  C   -0.185558
    67  C   -0.172779
    68  C   -0.178783
    69  C   -0.198721
    70  C    0.370240
    71  C   -0.204238
    72  C   -0.177589
    73  C   -0.267232
    74  C    0.391227
    75  C   -0.240436
    76  C    0.386433
    77  C   -0.264604
    78  H    0.145978
    79  H    0.148784
    80  H    0.138335
    81  H    0.129210
    82  H    0.128962
    83  H    0.141279
    84  H    0.130107
    85  H    0.141954
    86  H    0.128802
    87  H    0.141485
    88  H    0.150583
    89  H    0.149986
    90  O   -0.513293
    91  C   -0.213481
    92  O   -0.512200
    93  C   -0.211640
    94  O   -0.508619
    95  O   -0.509117
    96  C   -0.212785
    97  C   -0.214264
    98  H    0.141240
    99  H    0.146845
   100  H    0.140372
   101  H    0.130035
   102  H    0.133038
   103  H    0.144556
   104  H    0.151578
   105  H    0.157191
   106  H    0.145071
   107  H    0.130112
   108  H    0.167438
   109  H    0.148071
   110  H    0.131722
   111  H    0.146161
   112  H    0.135407
   113  H    0.144856
   114  H    0.148524
   115  H    0.149193
   116  H    0.165134
   117  H    0.149252
   118  H    0.150461
   119  H    0.167097
   120  H    0.169447
   121  H    0.151870
   122  H    0.150595
   123  H    0.150358
   124  H    0.149237
   125  H    0.167883
   126  O   -0.515228
   127  H    0.140460
   128  H    0.138066
   129  O   -0.522380
   130  H    0.138805
   131  H    0.143210
   132  O   -0.518596
   133  H    0.136190
   134  O   -0.515816
   135  H    0.140175
   136  O   -0.516272
   137  H    0.148627
   138  H    0.130659
   139  O   -0.513875
   140  H    0.158773
   141  H    0.147185
   142  O   -0.511708
   143  H    0.126251
   144  O   -0.512949
   145  H    0.144857
   146  C   -0.211273
   147  C   -0.213212
   148  C   -0.209838
   149  C   -0.212456
   150  H    0.164687
   151  H    0.151522
   152  H    0.151435
   153  H    0.172279
   154  H    0.151755
   155  H    0.150292
   156  H    0.167713
   157  H    0.148774
   158  H    0.147510
   159  H    0.164658
   160  H    0.153248
   161  H    0.152345
   162  C   -0.215071
   163  H    0.176422
   164  H    0.150855
   165  H    0.152143
   166  C   -0.223300
   167  H    0.175699
   168  H    0.152124
   169  H    0.153606
   170  C   -0.227484
   171  H    0.181852
   172  H    0.159932
   173  H    0.145693
   174  C   -0.209785
   175  H    0.168736
   176  H    0.147148
   177  H    0.148318
 Sum of Mulliken atomic charges =   0.00000
 Mulliken charges with hydrogens summed into heavy atoms:
              1
     1  C   -0.272344
     2  C    0.120307
     3  C    0.076299
     4  C    0.073023
     5  C    0.122173
     6  C    0.129579
     7  C    0.074567
     8  C    0.070928
     9  C    0.113690
    10  C   -0.091048
    11  C    0.288248
    12  C   -0.029667
    13  C   -0.073732
    14  C   -0.073909
    15  C   -0.038791
    16  C    0.300091
    17  C   -0.092562
    18  C   -0.073985
    19  C    0.253485
    20  C   -0.025751
    21  C   -0.076703
    22  C   -0.074074
    23  C   -0.020568
    24  C    0.258560
    25  C   -0.079420
    26  N   -0.671008
    27  N   -0.669458
    28  N   -0.660530
    29  N   -0.661168
    30  C    0.298992
    31  C    0.293355
    32  C    0.293489
    33  C    0.300634
    34  C    0.267019
    35  C    0.319145
    36  C    0.261269
    37  C    0.304137
    38  C   -0.017908
    39  C   -0.072817
    40  C    0.380351
    41  C   -0.042820
    42  C   -0.013239
    43  C   -0.019499
    44  C   -0.076013
    45  C    0.381421
    46  C   -0.045813
    47  C   -0.015090
    48  C   -0.105619
    49  C    0.387086
    50  C   -0.162814
    51  C    0.386342
    52  C   -0.101349
    53  C   -0.099591
    54  C    0.386932
    55  C   -0.149684
    56  C    0.385358
    57  C   -0.083053
    58  C   -0.118167
    59  C    0.389228
    60  C   -0.101064
    61  C    0.385061
    62  C   -0.115612
    63  C   -0.039419
    64  C   -0.073248
    65  C    0.375127
    66  C   -0.050151
    67  C   -0.027923
    68  C   -0.030712
    69  C   -0.031283
    70  C    0.370240
    71  C   -0.074126
    72  C   -0.032518
    73  C   -0.124022
    74  C    0.391227
    75  C   -0.104245
    76  C    0.386433
    77  C   -0.124429
    90  O   -0.513293
    91  C    0.253997
    92  O   -0.512200
    93  C    0.251211
    94  O   -0.508619
    95  O   -0.509117
    96  C    0.254024
    97  C    0.257648
   126  O   -0.515228
   129  O   -0.522380
   132  O   -0.518596
   134  O   -0.515816
   136  O   -0.516272
   139  O   -0.513875
   142  O   -0.511708
   144  O   -0.512949
   146  C    0.256371
   147  C    0.261114
   148  C    0.254160
   149  C    0.257795
   162  C    0.264348
   166  C    0.258130
   170  C    0.259993
   174  C    0.254418
 Sum of Mulliken charges with hydrogens summed into heavy atoms =   0.00000
 Electronic spatial extent (au):  <R**2>=         122831.6478
 Charge=              0.0000 electrons
 Dipole moment (field-independent basis, Debye):
    X=             -3.0619    Y=             -6.3358    Z=              0.9199  Tot=              7.0967
 Quadrupole moment (field-independent basis, Debye-Ang):
   XX=           -512.1679   YY=           -537.2040   ZZ=           -532.6106
   XY=             18.1683   XZ=             35.5588   YZ=              8.0598
 Traceless Quadrupole moment (field-independent basis, Debye-Ang):
   XX=             15.1596   YY=             -9.8765   ZZ=             -5.2831
   XY=             18.1683   XZ=             35.5588   YZ=              8.0598
 Octapole moment (field-independent basis, Debye-Ang**2):
  XXX=           -689.7928  YYY=           -396.2756  ZZZ=             19.6900  XYY=            348.2747
  XXY=           -197.3159  XXZ=             -0.9766  XZZ=            -51.9968  YZZ=           -167.0721
  YYZ=             18.2932  XYZ=             52.8888
 Hexadecapole moment (field-independent basis, Debye-Ang**3):
 XXXX=         -72152.3031 YYYY=         -60927.0014 ZZZZ=         -20198.9303 XXXY=           1698.6185
 XXXZ=           3724.5310 YYYX=            862.8974 YYYZ=            699.8766 ZZZX=            888.0432
 ZZZY=           -349.3264 XXYY=         -20234.0882 XXZZ=         -14883.3575 YYZZ=         -11914.8873
 XXYZ=           -546.8057 YYXZ=            550.1498 ZZXY=             -3.0710
 N-N= 1.925829862271D+04 E-N=-4.876404962086D+04  KE= 4.365265474123D+03
 Leave Link  601 at Thu Aug  7 18:19:30 2014, MaxMem= 2147483648 cpu:      58.0
 (Enter /opt/g09/l9999.exe)
 1\1\GINC-CHPC-SCANDIUM\FOpt\RB3LYP\6-31G(d)\C85H76N4O12\JARVIST\07-Aug
 -2014\0\\#p opt b3lyp/6-31g*\\Auto Spiro\\0,1\C,12.7426413117,-11.3186
 939848,0.2448331445\C,11.4434058884,-12.0095551973,-0.1913304441\C,11.
 7060087063,-13.329873259,-0.6115544743\C,13.1229792159,-13.6235943819,
 -0.3840244919\C,13.7466697983,-12.4709369505,0.1308251474\C,13.0782904
 942,-10.1352309892,-0.678826521\C,13.1895130762,-8.9461280738,0.064445
 4768\C,13.0054299943,-9.2581493419,1.4822330789\C,12.7349201325,-10.63
 56394402,1.6169224108\C,13.2452875473,-10.1410681784,-2.0549562898\C,1
 3.5377210473,-8.9339062731,-2.7168314558\C,13.6449948622,-7.7435046072
 ,-1.9722622058\C,13.4663412004,-7.7438932524,-0.5916036979\C,13.874397
 9299,-14.7862883172,-0.5700363526\C,15.227998648,-14.7884830602,-0.241
 2713714\C,15.8477988309,-13.6413198298,0.2911558936\C,15.0880417742,-1
 2.4695557016,0.4751106996\C,10.1708716216,-11.4677911764,-0.2943635166
 \C,9.137287825,-12.2449985893,-0.8470542801\C,9.402604984,-13.55584445
 14,-1.2783312172\C,10.679015784,-14.1033352145,-1.159105846\C,13.11882
 16186,-8.4538808674,2.6186348549\C,12.9935329192,-9.0353448127,3.87702
 44164\C,12.757621643,-10.414517544,4.0169372791\C,12.6034015143,-11.21
 68462913,2.8711625005\N,13.7481253076,-8.9260961975,-4.1219680656\N,17
 .2165080239,-13.6769356744,0.6604013276\N,7.8291855507,-11.6932235116,
 -0.9887627167\N,12.7307216762,-10.9888796532,5.3205820379\C,13.8370160
 833,-10.7745482361,6.1849514774\C,7.1306530681,-11.2638228541,0.169672
 7826\C,11.6205411828,-11.7746803415,5.7283084393\C,7.2427635881,-11.60
 97140676,-2.2782054877\C,14.5694101805,-9.9416850644,-4.6987756154\C,1
 3.1964790683,-7.9075448322,-4.9349699004\C,17.7471847663,-14.844841924
 9,1.2847870926\C,18.0503426904,-12.5467710839,0.4667275481\C,18.943497
 3151,-15.4125519662,0.8358172894\C,19.4783563864,-16.5473574788,1.4493
 095048\C,18.8004262656,-17.1471235748,2.5166695428\C,17.593673228,-16.
 5896526548,2.9653161162\C,17.0805950331,-15.4487305913,2.3647499738\C,
 14.144526823,-10.6554646157,-5.8233534369\C,14.9506594953,-11.64042724
 18,-6.3988290354\C,16.1949394917,-11.9406064878,-5.8329923994\C,16.622
 2262959,-11.2376662079,-4.6967506253\C,15.8236610958,-10.2463882615,-4
 .1431566056\C,13.8944916392,-7.4454706341,-6.0604667573\C,13.334690521
 1,-6.4502161464,-6.8628001493\C,12.0895222737,-5.8820157142,-6.5591600
 834\C,11.4089245296,-6.3503041918,-5.4261987261\C,11.94327824,-7.35913
 68695,-4.6237601845\C,18.9893852197,-12.1908068693,1.4445256285\C,19.8
 079716106,-11.0776464733,1.2452940809\C,19.7079221867,-10.2993782015,0
 .0834075291\C,18.7620706631,-10.671548909,-0.8826175549\C,17.942028862
 1,-11.7862213333,-0.7052935825\C,7.1654060461,-12.061402036,1.32170641
 44\C,6.4812653128,-11.6397976044,2.4676601192\C,5.764813998,-10.441499
 9924,2.4703155887\C,5.7322700832,-9.6596879439,1.312553677\C,6.4153405
 627,-10.0566629597,0.1570844912\C,8.0230937209,-11.3070763808,-3.40112
 69335\C,7.4613805305,-11.2485254607,-4.6787840717\C,6.0920085834,-11.4
 707183164,-4.851997251\C,5.3008124131,-11.7646015436,-3.7321062493\C,5
 .8675235105,-11.8445985738,-2.4680454968\C,10.3102644299,-11.385983798
 6,5.396739775\C,9.2184629718,-12.1456768235,5.7951049366\C,9.405605498
 8,-13.3119108109,6.5507482273\C,10.7032016939,-13.709223246,6.88972472
 71\C,11.7969696929,-12.9500010112,6.4690036309\C,15.1341919832,-10.764
 1008579,5.6502482801\C,16.2249906989,-10.5321851239,6.4966163147\C,16.
 0355465607,-10.3331876725,7.8662224105\C,14.7400003885,-10.3579342547,
 8.3877026195\C,13.6320890113,-10.5669221394,7.5579502943\H,12.42958538
 55,-12.2831623893,2.9828747647\H,9.9632521189,-10.4485745221,0.0184583
 624\H,8.5933087557,-14.1387074629,-1.7079636306\H,10.8656652649,-15.12
 13834489,-1.4915585254\H,13.4183241978,-15.6866224358,-0.9740661331\H,
 15.8197030891,-15.685725081,-0.3897793389\H,13.3170247491,-7.388771115
 3,2.5300533339\H,13.0993836809,-8.431620598,4.7729960347\H,13.56219962
 14,-6.81471313,-0.0354570838\H,13.8750982104,-6.818105897,-2.489990426
 3\H,15.5545305193,-11.5823693936,0.8906166103\H,13.1572613666,-11.0598
 311187,-2.6265600401\O,8.2654995366,-13.9904181379,6.901192393\C,8.403
 4546212,-15.1619252867,7.6867186891\O,5.4355259674,-11.4269780183,-6.0
 537138011\C,6.1940614312,-11.1326956936,-7.2128277691\O,19.2237122706,
 -18.2630637298,3.1823312455\O,17.0595382414,-12.8877554561,-6.30854948
 93\C,16.668887552,-13.6371320202,-7.4458510764\C,20.4389668759,-18.866
 0983239,2.771124375\H,17.0828498161,-17.060404319,3.7995188357\H,16.15
 26028065,-15.0171792287,2.7269302675\H,13.1761656506,-10.4332337703,-6
 .2610442483\H,14.5912507093,-12.1699709737,-7.2737975601\H,20.41055312
 59,-16.9571646963,1.0775520882\H,19.4666546359,-14.9585180217,-0.00012
 30719\H,17.5910315734,-11.4665081365,-4.2648361055\H,16.1749292564,-9.
 7092900459,-3.2681202545\H,12.8004212857,-13.2724204387,6.7276325128\H
 ,10.8815467741,-14.6114228791,7.4641533679\H,8.2094645974,-11.84486306
 52,5.5313036958\H,10.1508137197,-10.4786849632,4.8226164763\H,8.101964
 7669,-11.0133236191,-5.5212831835\H,9.0844475982,-11.116203959,-3.2786
 051891\H,4.2401072119,-11.9448634644,-3.8786102942\H,5.2443519919,-12.
 0892073072,-1.614025956\H,6.978239733,-11.8825513013,-7.3862366953\H,6
 .6586869909,-10.1388631289,-7.1529097878\H,5.4894164559,-11.1504111023
 ,-8.0468166468\H,16.5132005903,-12.9933672176,-8.3224245597\H,15.75225
 72824,-14.2123439015,-7.2571382593\H,17.4907049599,-14.3268461085,-7.6
 482516701\H,20.5859868629,-19.7243247513,3.429561992\H,21.2886360531,-
 18.1782820745,2.8778160287\H,20.3869937206,-19.2133343252,1.7303192531
 \H,8.8868490478,-14.948318049,8.6496168162\H,8.9784148374,-15.93767749
 64,7.1626632744\H,7.389693689,-15.5253175797,7.8662329287\O,5.00763493
 87,-8.5043117197,1.4096766111\H,6.4139100106,-9.4528365746,-0.74069132
 34\H,5.2287000771,-10.1254793784,3.3575432373\O,6.4431956147,-12.35472
 18985,3.6325512765\H,7.710372529,-12.9953051497,1.2992852292\H,15.2704
 298877,-10.9431483552,4.5926647813\O,17.5219644847,-10.502348759,6.070
 0390763\H,16.8844806636,-10.1641318158,8.5181438214\O,14.649627104,-10
 .1477176317,9.7363417756\H,12.6234035611,-10.5624469438,7.9484434886\O
 ,20.6772817433,-10.8050455106,2.267443481\H,19.0937838519,-12.76437983
 41,2.3574917394\H,20.3399769751,-9.4354868683,-0.0625428172\O,18.58166
 80176,-9.9980000199,-2.0615265406\H,17.2329842765,-12.0488528586,-1.48
 12071829\H,11.3728377315,-7.7063151958,-3.771114784\O,10.1843629622,-5
 .8827190024,-5.0336349348\H,11.6658988794,-5.1066066317,-7.1807107213\
 O,14.0959676555,-6.0723797388,-7.9357450131\H,14.8676253141,-7.8423516
 373,-6.3214532781\C,13.3654427324,-10.1673109763,10.3360190483\C,21.53
 52573164,-9.6823481523,2.1475326394\C,13.6164069731,-5.0373476455,-8.7
 75057106\C,4.9174772182,-7.6690351247,0.2677155179\H,13.5314616157,-10
 .0041959592,11.4028806388\H,12.8639039852,-11.1332711938,10.1903373393
 \H,12.7218004754,-9.3681374666,9.9445047685\H,22.128299381,-9.66047375
 46,3.0636926505\H,20.9682674937,-8.7457847955,2.0617202773\H,22.207360
 8479,-9.7775428801,1.2842632171\H,14.3799832678,-4.8962201996,-9.54270
 78385\H,13.4805511623,-4.0968589435,-8.2239429473\H,12.667792598,-5.31
 07900765,-9.257032715\H,4.2850979888,-6.8287993862,0.5616618055\H,4.45
 61530582,-8.1908693767,-0.5811590849\H,5.9024452178,-7.2908500124,-0.0
 370257707\C,19.4072032181,-8.8793526246,-2.3438759294\H,19.0973089668,
 -8.5222653506,-3.3274534305\H,20.4683690391,-9.1594780148,-2.376818045
 6\H,19.2669143239,-8.077507277,-1.6070957584\C,17.781088953,-10.719248
 636,4.6901524278\H,18.8632957285,-10.6542209281,4.5659431658\H,17.2990
 718209,-9.9573584963,4.0638425272\H,17.4419046655,-11.7118301724,4.367
 1950417\C,6.988685254,-13.6687320748,3.6317072662\H,6.8468105593,-14.0
 501065468,4.6433970241\H,8.0618934565,-13.6611993366,3.4067878755\H,6.
 4687335602,-14.3107349161,2.9084567334\C,9.5619609852,-4.8764126845,-5
 .811813482\H,8.6088220155,-4.666182958,-5.3224672661\H,9.3726972244,-5
 .2153733749,-6.8395420903\H,10.1619090001,-3.9566917576,-5.8423226588\
 \Version=EM64L-G09RevA.02\State=1-A\HF=-4406.391865\RMSD=3.759e-09\RMS
 F=2.894e-06\Dipole=1.4583897,0.1210237,-2.3778223\Quadrupole=-16.47644
 14,14.1756185,2.3008229,-5.7732559,-3.7190184,-27.0083956\PG=C01 [X(C8
 5H76N4O12)]\\@


 A COMPUTER IS LIKE A HORSE, IT WILL SENSE WEAKNESS.
     -- GREG WETTSTEIN
 Job cpu time:  5 days  0 hours 33 minutes 31.1 seconds.
 File lengths (MBytes):  RWF=   1717 Int=      0 D2E=      0 Chk=    170 Scr=      1
 Normal termination of Gaussian 09 at Thu Aug  7 18:19:31 2014.
