 Entering Gaussian System, Link 0=g09
 Input=b3lyp-631gs_opt/HF_4.com
 Output=b3lyp-631gs_opt/HF_4.log
 Initial command:
 /opt/g09/l1.exe /home/jarvist/super_spiro/Gau-32431.inp -scrdir=/home/jarvist/super_spiro/
 Default is to use a total of   8 processors:
                                8 via shared-memory
                                1 via Linda
 Entering Link 1 = /opt/g09/l1.exe PID=     32433.
  
 Copyright (c) 1988,1990,1992,1993,1995,1998,2003,2009, Gaussian, Inc.
                  All Rights Reserved.
  
 This is part of the Gaussian(R) 09 program.  It is based on
 the Gaussian(R) 03 system (copyright 2003, Gaussian, Inc.),
 the Gaussian(R) 98 system (copyright 1998, Gaussian, Inc.),
 the Gaussian(R) 94 system (copyright 1995, Gaussian, Inc.),
 the Gaussian 92(TM) system (copyright 1992, Gaussian, Inc.),
 the Gaussian 90(TM) system (copyright 1990, Gaussian, Inc.),
 the Gaussian 88(TM) system (copyright 1988, Gaussian, Inc.),
 the Gaussian 86(TM) system (copyright 1986, Carnegie Mellon
 University), and the Gaussian 82(TM) system (copyright 1983,
 Carnegie Mellon University). Gaussian is a federally registered
 trademark of Gaussian, Inc.
  
 This software contains proprietary and confidential information,
 including trade secrets, belonging to Gaussian, Inc.
  
 This software is provided under written license and may be
 used, copied, transmitted, or stored only in accord with that
 written license.
  
 The following legend is applicable only to US Government
 contracts under FAR:
  
                    RESTRICTED RIGHTS LEGEND
  
 Use, reproduction and disclosure by the US Government is
 subject to restrictions as set forth in subparagraphs (a)
 and (c) of the Commercial Computer Software - Restricted
 Rights clause in FAR 52.227-19.
  
 Gaussian, Inc.
 340 Quinnipiac St., Bldg. 40, Wallingford CT 06492
  
  
 ---------------------------------------------------------------
 Warning -- This program may not be used in any manner that
 competes with the business of Gaussian, Inc. or will provide
 assistance to any competitor of Gaussian, Inc.  The licensee
 of this program is prohibited from giving any competitor of
 Gaussian, Inc. access to this program.  By using this program,
 the user acknowledges that Gaussian, Inc. is engaged in the
 business of creating and licensing software in the field of
 computational chemistry and represents and warrants to the
 licensee that it is not a competitor of Gaussian, Inc. and that
 it will not use this program in any manner prohibited above.
 ---------------------------------------------------------------
  

 Cite this work as:
 Gaussian 09, Revision A.02,
 M. J. Frisch, G. W. Trucks, H. B. Schlegel, G. E. Scuseria, 
 M. A. Robb, J. R. Cheeseman, G. Scalmani, V. Barone, B. Mennucci, 
 G. A. Petersson, H. Nakatsuji, M. Caricato, X. Li, H. P. Hratchian, 
 A. F. Izmaylov, J. Bloino, G. Zheng, J. L. Sonnenberg, M. Hada, 
 M. Ehara, K. Toyota, R. Fukuda, J. Hasegawa, M. Ishida, T. Nakajima, 
 Y. Honda, O. Kitao, H. Nakai, T. Vreven, J. A. Montgomery, Jr., 
 J. E. Peralta, F. Ogliaro, M. Bearpark, J. J. Heyd, E. Brothers, 
 K. N. Kudin, V. N. Staroverov, R. Kobayashi, J. Normand, 
 K. Raghavachari, A. Rendell, J. C. Burant, S. S. Iyengar, J. Tomasi, 
 M. Cossi, N. Rega, J. M. Millam, M. Klene, J. E. Knox, J. B. Cross, 
 V. Bakken, C. Adamo, J. Jaramillo, R. Gomperts, R. E. Stratmann, 
 O. Yazyev, A. J. Austin, R. Cammi, C. Pomelli, J. W. Ochterski, 
 R. L. Martin, K. Morokuma, V. G. Zakrzewski, G. A. Voth, 
 P. Salvador, J. J. Dannenberg, S. Dapprich, A. D. Daniels, 
 O. Farkas, J. B. Foresman, J. V. Ortiz, J. Cioslowski, 
 and D. J. Fox, Gaussian, Inc., Wallingford CT, 2009.
 
 ******************************************
 Gaussian 09:  EM64L-G09RevA.02 11-Jun-2009
                 7-Aug-2014 
 ******************************************
 %mem=16GB
 %nprocs=24
 Will use up to   24 processors via shared memory.
 Default route:  MaxDisk=100GB
 -------------------
 #p opt b3lyp/6-31g*
 -------------------
 1/14=-1,18=20,19=15,26=3,38=1/1,3;
 2/9=110,12=2,17=6,18=5,40=1/2;
 3/5=1,6=6,7=1,11=2,16=1,25=1,30=1,71=1,74=-5/1,2,3;
 4//1;
 5/5=2,38=5/2;
 6/7=2,8=2,9=2,10=2,28=1/1;
 7//1,2,3,16;
 1/14=-1,18=20,19=15/3(2);
 2/9=110/2;
 99//99;
 2/9=110/2;
 3/5=1,6=6,7=1,11=2,16=1,25=1,30=1,71=1,74=-5/1,2,3;
 4/5=5,16=3/1;
 5/5=2,38=5/2;
 7//1,2,3,16;
 1/14=-1,18=20,19=15/3(-5);
 2/9=110/2;
 6/7=2,8=2,9=2,10=2,19=2,28=1/1;
 99/9=1/99;
 Leave Link    1 at Thu Aug  7 18:19:31 2014, MaxMem= 2147483648 cpu:       1.1
 (Enter /opt/g09/l101.exe)
 ----------
 Auto Spiro
 ----------
 Symbolic Z-matrix:
 Charge =  0 Multiplicity = 1
 C                     12.58983   12.06644   13.23809 
 C                     11.27196   11.38871   12.85391 
 C                     11.49435   10.03929   12.50492 
 C                     12.91373   9.74097   12.66102 
 C                     13.5795   10.90802   13.09232 
 C                     12.92577   13.26547   12.34628 
 C                     13.08285   14.43117   13.12469 
 C                     12.87634   14.09008   14.5279 
 C                     12.58352   12.71336   14.62464 
 C                     13.05036   13.29398   10.96686 
 C                     13.35163   14.51339   10.32848 
 C                     13.52653   15.67547   11.10627 
 C                     13.38625   15.64147   12.49125 
 C                     13.64827   8.56687   12.46544 
 C                     15.02194   8.57022   12.69297 
 C                     15.68542   9.73431   13.13165 
 C                     14.9428   10.91538   13.33611 
 C                     10.00855   11.95334   12.78789 
 C                     8.92318   11.16     12.36715 
 C                     9.14257   9.81213   12.02257 
 C                     10.41632   9.25242   12.08525 
 C                     12.91987   14.86408   15.6927 
 C                     12.67335   14.26588   16.92487 
 C                     12.39668   12.88664   17.02348 
 C                     12.35282   12.10738   15.8492 
 N                     13.4901   14.5634   8.91906 
 N                     17.07889   9.7075    13.37522 
 N                     7.62073   11.71378   12.26898 
 N                     12.14967   12.29458   18.28404 
 C                     12.84319   12.73053   19.44067 
 C                     7.12327   12.57351   13.27507 
 C                     11.18121   11.25916   18.40179 
 C                     6.82282   11.40835   11.13279 
 C                     14.14174   13.49101   8.24738 
 C                     12.98967   15.65938   8.17982 
 C                     17.66691   8.54077   13.94054 
 C                     17.89329   10.82307   13.06664 
 C                     18.83067   7.98785   13.39532 
 C                     19.41589   6.84718   13.94894 
 C                     18.8238   6.22702   15.05646 
 C                     17.65247   6.77183   15.60482 
 C                     17.08865   7.9167    15.05974 
 C                     13.58784   12.91813   7.09739 
 C                     14.22886   11.87101   6.4321 
 C                     15.43679   11.36409   6.928 
 C                     15.99347   11.92619   8.08714 
 C                     15.35841   12.97916   8.73072 
 C                     13.66624   16.10891   7.03909 
 C                     13.16409   17.17865   6.28874 
 C                     11.98619   17.82973   6.67762 
 C                     11.32374   17.37753   7.82464 
 C                     11.79934   16.30692   8.57056 
 C                     18.96746   11.1609   13.89784 
 C                     19.78979   12.25121   13.58966 
 C                     19.54184   13.02867   12.45092 
 C                     18.46113   12.6843   11.63135 
 C                     17.6435   11.59817   11.91641 
 C                     7.45057   12.36406   14.62332 
 C                     6.94138   13.22478   15.59665 
 C                     6.10207   14.28315   15.26486 
 C                     5.77307   14.49084   13.91645 
 C                     6.28425   13.64985   12.92462 
 C                     7.37017   11.43454   9.84487 
 C                     6.59802   11.11942   8.72439 
 C                     5.2456    10.79108   8.87873 
 C                     4.68698   10.76868   10.16627 
 C                     5.46649   11.06287   11.27603 
 C                     9.91897   11.38043   17.79409 
 C                     8.97319   10.37161   17.91247 
 C                     9.25586   9.21652   18.65834 
 C                     10.50693   9.08779   19.27477 
 C                     11.45963   10.09924   19.1335 
 C                     14.20672   13.05197   19.38501 
 C                     14.86016   13.47889   20.54237 
 C                     14.19144   13.58017   21.75761 
 C                     12.82749   13.25313   21.81389 
 C                     12.15276   12.83704   20.66341 
 H                     12.14099   11.04017   15.91368 
 H                     9.84593   12.99965   13.04696 
 H                     8.2959    9.2064    11.70149 
 H                     10.55968   8.20477   11.81754 
 H                     13.16144   7.65232   12.12425 
 H                     15.60125   7.66217   12.53175 
 H                     13.12792   15.93372   15.64551 
 H                     12.69269   14.86641   17.83309 
 H                     13.52796   16.55523   13.06976 
 H                     13.77366   16.61113   10.6066 
 H                     15.44415   11.81797   13.6849 
 H                     12.91424   12.39016   10.37287 
 O                     8.25511   8.28518   18.72271 
 C                     8.51077   7.09693   19.46211 
 O                     4.39558   10.47845   7.85141 
 C                     4.93056   10.48577   6.53324 
 O                     19.30514   5.10167   15.66984 
 O                     16.14262   10.33754   6.36101 
 C                     15.59791   9.73278   5.19433 
 C                     20.48914   4.51976   15.13676 
 H                     17.20591   6.2882    16.47311 
 H                     16.18428   8.33767   15.49808 
 H                     12.64425   13.30188   6.71083 
 H                     13.76922   11.45256   5.53923 
 H                     20.32283   6.44736   13.50012 
 H                     19.29143   8.46043   12.52843 
 H                     16.9363   11.52806   8.46191 
 H                     15.80005   13.41415   9.62708 
 H                     12.43487   9.9884    19.60687 
 H                     10.75967   8.20112   19.85237 
 H                     7.99485   10.46293   17.44074 
 H                     9.68775   12.27637   17.21819 
 H                     7.06031   11.14748   7.73987 
 H                     8.41929   11.69892   9.71566 
 H                     3.6371    10.4989   10.27765 
 H                     5.02568   11.02983   12.27189 
 H                     5.74296   9.74936   6.42305 
 H                     5.30637   11.48337   6.25429 
 H                     4.10231   10.2129   5.87161 
 H                     15.50455   10.45714   4.36899 
 H                     14.61175   9.28359   5.39458 
 H                     16.30264   8.94578   4.90754 
 H                     20.70061   3.64539   15.76037 
 H                     21.34046   5.21768   15.1865 
 H                     20.34623   4.19725   14.0929 
 H                     8.71738   7.31692   20.52202 
 H                     9.35601   6.53096   19.03858 
 H                     7.59902   6.49572   19.38813 
 O                     4.95179   15.55634   13.66296 
 H                     6.04903   13.8121   11.87599 
 H                     5.69305   14.95095   16.02087 
 H                     7.19227   13.05462   16.6444 
 H                     8.09397   11.5311   14.9004 
 H                     14.74667   12.9645   18.44432 
 H                     15.92175   13.72274   20.49493 
 H                     14.69798   13.90294   22.66578 
 O                     12.23384   13.38732   23.04013 
 H                     11.09384   12.59307   20.68878 
 O                     20.8067   12.48331   14.47729 
 H                     19.17855   10.58383   14.79634 
 H                     20.1677   13.87998   12.19567 
 H                     18.26759   13.2787   10.73752 
 H                     16.81489   11.33993   11.25989 
 H                     11.2595   15.96301   9.45041 
 H                     10.4015   17.87175   8.13182 
 H                     11.58247   18.6641   6.10966 
 O                     13.91137   17.52206   5.19272 
 H                     14.5915   15.63408   6.71762 
 C                     10.84986   13.07099   23.14324 
 C                     21.64158   13.61094   14.24035 
 C                     13.46777   18.62857   4.41603 
 C                     4.588     15.8053   12.30951 
 H                     10.58185   13.24004   24.19108 
 H                     10.65438   12.01894   22.88101 
 H                     10.23699   13.72274   22.50048 
 H                     22.3629   13.6272   15.06375 
 H                     21.06398   14.54894   14.24275 
 H                     22.18247   13.52084   13.28467 
 H                     14.19906   18.74054   3.60892 
 H                     13.43759   19.55461   5.01215 
 H                     12.47194   18.44561   3.98156 
 H                     3.92516   16.67631   12.33421 
 H                     4.05074   14.94928   11.87104 
 H                     5.46933   16.03494   11.68945 
 
 NAtoms=    161 NQM=    161 NQMF=      0 NMic=      0 NMicF=      0 NTot=    161.
                    Isotopes and Nuclear Properties:
 (Nuclear quadrupole moments (NQMom) in fm**2, nuclear magnetic moments (NMagM)
  in nuclear magnetons)

  Atom         1           2           3           4           5           6           7           8           9          10
 IAtWgt=          12          12          12          12          12          12          12          12          12          12
 AtmWgt=  12.0000000  12.0000000  12.0000000  12.0000000  12.0000000  12.0000000  12.0000000  12.0000000  12.0000000  12.0000000
 NucSpn=           0           0           0           0           0           0           0           0           0           0
 AtZEff=   0.0000000   0.0000000   0.0000000   0.0000000   0.0000000   0.0000000   0.0000000   0.0000000   0.0000000   0.0000000
 NQMom=    0.0000000   0.0000000   0.0000000   0.0000000   0.0000000   0.0000000   0.0000000   0.0000000   0.0000000   0.0000000
 NMagM=    0.0000000   0.0000000   0.0000000   0.0000000   0.0000000   0.0000000   0.0000000   0.0000000   0.0000000   0.0000000

  Atom        11          12          13          14          15          16          17          18          19          20
 IAtWgt=          12          12          12          12          12          12          12          12          12          12
 AtmWgt=  12.0000000  12.0000000  12.0000000  12.0000000  12.0000000  12.0000000  12.0000000  12.0000000  12.0000000  12.0000000
 NucSpn=           0           0           0           0           0           0           0           0           0           0
 AtZEff=   0.0000000   0.0000000   0.0000000   0.0000000   0.0000000   0.0000000   0.0000000   0.0000000   0.0000000   0.0000000
 NQMom=    0.0000000   0.0000000   0.0000000   0.0000000   0.0000000   0.0000000   0.0000000   0.0000000   0.0000000   0.0000000
 NMagM=    0.0000000   0.0000000   0.0000000   0.0000000   0.0000000   0.0000000   0.0000000   0.0000000   0.0000000   0.0000000

  Atom        21          22          23          24          25          26          27          28          29          30
 IAtWgt=          12          12          12          12          12          14          14          14          14          12
 AtmWgt=  12.0000000  12.0000000  12.0000000  12.0000000  12.0000000  14.0030740  14.0030740  14.0030740  14.0030740  12.0000000
 NucSpn=           0           0           0           0           0           2           2           2           2           0
 AtZEff=   0.0000000   0.0000000   0.0000000   0.0000000   0.0000000   0.0000000   0.0000000   0.0000000   0.0000000   0.0000000
 NQMom=    0.0000000   0.0000000   0.0000000   0.0000000   0.0000000   2.0440000   2.0440000   2.0440000   2.0440000   0.0000000
 NMagM=    0.0000000   0.0000000   0.0000000   0.0000000   0.0000000   0.4037610   0.4037610   0.4037610   0.4037610   0.0000000

  Atom        31          32          33          34          35          36          37          38          39          40
 IAtWgt=          12          12          12          12          12          12          12          12          12          12
 AtmWgt=  12.0000000  12.0000000  12.0000000  12.0000000  12.0000000  12.0000000  12.0000000  12.0000000  12.0000000  12.0000000
 NucSpn=           0           0           0           0           0           0           0           0           0           0
 AtZEff=   0.0000000   0.0000000   0.0000000   0.0000000   0.0000000   0.0000000   0.0000000   0.0000000   0.0000000   0.0000000
 NQMom=    0.0000000   0.0000000   0.0000000   0.0000000   0.0000000   0.0000000   0.0000000   0.0000000   0.0000000   0.0000000
 NMagM=    0.0000000   0.0000000   0.0000000   0.0000000   0.0000000   0.0000000   0.0000000   0.0000000   0.0000000   0.0000000

  Atom        41          42          43          44          45          46          47          48          49          50
 IAtWgt=          12          12          12          12          12          12          12          12          12          12
 AtmWgt=  12.0000000  12.0000000  12.0000000  12.0000000  12.0000000  12.0000000  12.0000000  12.0000000  12.0000000  12.0000000
 NucSpn=           0           0           0           0           0           0           0           0           0           0
 AtZEff=   0.0000000   0.0000000   0.0000000   0.0000000   0.0000000   0.0000000   0.0000000   0.0000000   0.0000000   0.0000000
 NQMom=    0.0000000   0.0000000   0.0000000   0.0000000   0.0000000   0.0000000   0.0000000   0.0000000   0.0000000   0.0000000
 NMagM=    0.0000000   0.0000000   0.0000000   0.0000000   0.0000000   0.0000000   0.0000000   0.0000000   0.0000000   0.0000000

  Atom        51          52          53          54          55          56          57          58          59          60
 IAtWgt=          12          12          12          12          12          12          12          12          12          12
 AtmWgt=  12.0000000  12.0000000  12.0000000  12.0000000  12.0000000  12.0000000  12.0000000  12.0000000  12.0000000  12.0000000
 NucSpn=           0           0           0           0           0           0           0           0           0           0
 AtZEff=   0.0000000   0.0000000   0.0000000   0.0000000   0.0000000   0.0000000   0.0000000   0.0000000   0.0000000   0.0000000
 NQMom=    0.0000000   0.0000000   0.0000000   0.0000000   0.0000000   0.0000000   0.0000000   0.0000000   0.0000000   0.0000000
 NMagM=    0.0000000   0.0000000   0.0000000   0.0000000   0.0000000   0.0000000   0.0000000   0.0000000   0.0000000   0.0000000

  Atom        61          62          63          64          65          66          67          68          69          70
 IAtWgt=          12          12          12          12          12          12          12          12          12          12
 AtmWgt=  12.0000000  12.0000000  12.0000000  12.0000000  12.0000000  12.0000000  12.0000000  12.0000000  12.0000000  12.0000000
 NucSpn=           0           0           0           0           0           0           0           0           0           0
 AtZEff=   0.0000000   0.0000000   0.0000000   0.0000000   0.0000000   0.0000000   0.0000000   0.0000000   0.0000000   0.0000000
 NQMom=    0.0000000   0.0000000   0.0000000   0.0000000   0.0000000   0.0000000   0.0000000   0.0000000   0.0000000   0.0000000
 NMagM=    0.0000000   0.0000000   0.0000000   0.0000000   0.0000000   0.0000000   0.0000000   0.0000000   0.0000000   0.0000000

  Atom        71          72          73          74          75          76          77          78          79          80
 IAtWgt=          12          12          12          12          12          12          12           1           1           1
 AtmWgt=  12.0000000  12.0000000  12.0000000  12.0000000  12.0000000  12.0000000  12.0000000   1.0078250   1.0078250   1.0078250
 NucSpn=           0           0           0           0           0           0           0           1           1           1
 AtZEff=   0.0000000   0.0000000   0.0000000   0.0000000   0.0000000   0.0000000   0.0000000   0.0000000   0.0000000   0.0000000
 NQMom=    0.0000000   0.0000000   0.0000000   0.0000000   0.0000000   0.0000000   0.0000000   0.0000000   0.0000000   0.0000000
 NMagM=    0.0000000   0.0000000   0.0000000   0.0000000   0.0000000   0.0000000   0.0000000   2.7928460   2.7928460   2.7928460

  Atom        81          82          83          84          85          86          87          88          89          90
 IAtWgt=           1           1           1           1           1           1           1           1           1          16
 AtmWgt=   1.0078250   1.0078250   1.0078250   1.0078250   1.0078250   1.0078250   1.0078250   1.0078250   1.0078250  15.9949146
 NucSpn=           1           1           1           1           1           1           1           1           1           0
 AtZEff=   0.0000000   0.0000000   0.0000000   0.0000000   0.0000000   0.0000000   0.0000000   0.0000000   0.0000000   0.0000000
 NQMom=    0.0000000   0.0000000   0.0000000   0.0000000   0.0000000   0.0000000   0.0000000   0.0000000   0.0000000   0.0000000
 NMagM=    2.7928460   2.7928460   2.7928460   2.7928460   2.7928460   2.7928460   2.7928460   2.7928460   2.7928460   0.0000000

  Atom        91          92          93          94          95          96          97          98          99         100
 IAtWgt=          12          16          12          16          16          12          12           1           1           1
 AtmWgt=  12.0000000  15.9949146  12.0000000  15.9949146  15.9949146  12.0000000  12.0000000   1.0078250   1.0078250   1.0078250
 NucSpn=           0           0           0           0           0           0           0           1           1           1
 AtZEff=   0.0000000   0.0000000   0.0000000   0.0000000   0.0000000   0.0000000   0.0000000   0.0000000   0.0000000   0.0000000
 NQMom=    0.0000000   0.0000000   0.0000000   0.0000000   0.0000000   0.0000000   0.0000000   0.0000000   0.0000000   0.0000000
 NMagM=    0.0000000   0.0000000   0.0000000   0.0000000   0.0000000   0.0000000   0.0000000   2.7928460   2.7928460   2.7928460

  Atom       101         102         103         104         105         106         107         108         109         110
 IAtWgt=           1           1           1           1           1           1           1           1           1           1
 AtmWgt=   1.0078250   1.0078250   1.0078250   1.0078250   1.0078250   1.0078250   1.0078250   1.0078250   1.0078250   1.0078250
 NucSpn=           1           1           1           1           1           1           1           1           1           1
 AtZEff=   0.0000000   0.0000000   0.0000000   0.0000000   0.0000000   0.0000000   0.0000000   0.0000000   0.0000000   0.0000000
 NQMom=    0.0000000   0.0000000   0.0000000   0.0000000   0.0000000   0.0000000   0.0000000   0.0000000   0.0000000   0.0000000
 NMagM=    2.7928460   2.7928460   2.7928460   2.7928460   2.7928460   2.7928460   2.7928460   2.7928460   2.7928460   2.7928460

  Atom       111         112         113         114         115         116         117         118         119         120
 IAtWgt=           1           1           1           1           1           1           1           1           1           1
 AtmWgt=   1.0078250   1.0078250   1.0078250   1.0078250   1.0078250   1.0078250   1.0078250   1.0078250   1.0078250   1.0078250
 NucSpn=           1           1           1           1           1           1           1           1           1           1
 AtZEff=   0.0000000   0.0000000   0.0000000   0.0000000   0.0000000   0.0000000   0.0000000   0.0000000   0.0000000   0.0000000
 NQMom=    0.0000000   0.0000000   0.0000000   0.0000000   0.0000000   0.0000000   0.0000000   0.0000000   0.0000000   0.0000000
 NMagM=    2.7928460   2.7928460   2.7928460   2.7928460   2.7928460   2.7928460   2.7928460   2.7928460   2.7928460   2.7928460

  Atom       121         122         123         124         125         126         127         128         129         130
 IAtWgt=           1           1           1           1           1          16           1           1           1           1
 AtmWgt=   1.0078250   1.0078250   1.0078250   1.0078250   1.0078250  15.9949146   1.0078250   1.0078250   1.0078250   1.0078250
 NucSpn=           1           1           1           1           1           0           1           1           1           1
 AtZEff=   0.0000000   0.0000000   0.0000000   0.0000000   0.0000000   0.0000000   0.0000000   0.0000000   0.0000000   0.0000000
 NQMom=    0.0000000   0.0000000   0.0000000   0.0000000   0.0000000   0.0000000   0.0000000   0.0000000   0.0000000   0.0000000
 NMagM=    2.7928460   2.7928460   2.7928460   2.7928460   2.7928460   0.0000000   2.7928460   2.7928460   2.7928460   2.7928460

  Atom       131         132         133         134         135         136         137         138         139         140
 IAtWgt=           1           1           1          16           1          16           1           1           1           1
 AtmWgt=   1.0078250   1.0078250   1.0078250  15.9949146   1.0078250  15.9949146   1.0078250   1.0078250   1.0078250   1.0078250
 NucSpn=           1           1           1           0           1           0           1           1           1           1
 AtZEff=   0.0000000   0.0000000   0.0000000   0.0000000   0.0000000   0.0000000   0.0000000   0.0000000   0.0000000   0.0000000
 NQMom=    0.0000000   0.0000000   0.0000000   0.0000000   0.0000000   0.0000000   0.0000000   0.0000000   0.0000000   0.0000000
 NMagM=    2.7928460   2.7928460   2.7928460   0.0000000   2.7928460   0.0000000   2.7928460   2.7928460   2.7928460   2.7928460

  Atom       141         142         143         144         145         146         147         148         149         150
 IAtWgt=           1           1           1          16           1          12          12          12          12           1
 AtmWgt=   1.0078250   1.0078250   1.0078250  15.9949146   1.0078250  12.0000000  12.0000000  12.0000000  12.0000000   1.0078250
 NucSpn=           1           1           1           0           1           0           0           0           0           1
 AtZEff=   0.0000000   0.0000000   0.0000000   0.0000000   0.0000000   0.0000000   0.0000000   0.0000000   0.0000000   0.0000000
 NQMom=    0.0000000   0.0000000   0.0000000   0.0000000   0.0000000   0.0000000   0.0000000   0.0000000   0.0000000   0.0000000
 NMagM=    2.7928460   2.7928460   2.7928460   0.0000000   2.7928460   0.0000000   0.0000000   0.0000000   0.0000000   2.7928460

  Atom       151         152         153         154         155         156         157         158         159         160
 IAtWgt=           1           1           1           1           1           1           1           1           1           1
 AtmWgt=   1.0078250   1.0078250   1.0078250   1.0078250   1.0078250   1.0078250   1.0078250   1.0078250   1.0078250   1.0078250
 NucSpn=           1           1           1           1           1           1           1           1           1           1
 AtZEff=   0.0000000   0.0000000   0.0000000   0.0000000   0.0000000   0.0000000   0.0000000   0.0000000   0.0000000   0.0000000
 NQMom=    0.0000000   0.0000000   0.0000000   0.0000000   0.0000000   0.0000000   0.0000000   0.0000000   0.0000000   0.0000000
 NMagM=    2.7928460   2.7928460   2.7928460   2.7928460   2.7928460   2.7928460   2.7928460   2.7928460   2.7928460   2.7928460

  Atom       161
 IAtWgt=           1
 AtmWgt=   1.0078250
 NucSpn=           1
 AtZEff=   0.0000000
 NQMom=    0.0000000
 NMagM=    2.7928460
 Leave Link  101 at Thu Aug  7 18:19:31 2014, MaxMem= 2147483648 cpu:       4.8
 (Enter /opt/g09/l103.exe)

 GradGradGradGradGradGradGradGradGradGradGradGradGradGradGradGradGradGrad
 Berny optimization.
 Initialization pass.
                           ----------------------------
                           !    Initial Parameters    !
                           ! (Angstroms and Degrees)  !
 --------------------------                            --------------------------
 ! Name  Definition              Value          Derivative Info.                !
 --------------------------------------------------------------------------------
 ! R1    R(1,2)                  1.5309         estimate D2E/DX2                !
 ! R2    R(1,5)                  1.5306         estimate D2E/DX2                !
 ! R3    R(1,6)                  1.5316         estimate D2E/DX2                !
 ! R4    R(1,9)                  1.5301         estimate D2E/DX2                !
 ! R5    R(2,3)                  1.4114         estimate D2E/DX2                !
 ! R6    R(2,18)                 1.3854         estimate D2E/DX2                !
 ! R7    R(3,4)                  1.4588         estimate D2E/DX2                !
 ! R8    R(3,21)                 1.3991         estimate D2E/DX2                !
 ! R9    R(4,5)                  1.4111         estimate D2E/DX2                !
 ! R10   R(4,14)                 1.3987         estimate D2E/DX2                !
 ! R11   R(5,17)                 1.3849         estimate D2E/DX2                !
 ! R12   R(6,7)                  1.4105         estimate D2E/DX2                !
 ! R13   R(6,10)                 1.3853         estimate D2E/DX2                !
 ! R14   R(7,8)                  1.4588         estimate D2E/DX2                !
 ! R15   R(7,13)                 1.3993         estimate D2E/DX2                !
 ! R16   R(8,9)                  1.4108         estimate D2E/DX2                !
 ! R17   R(8,22)                 1.3992         estimate D2E/DX2                !
 ! R18   R(9,25)                 1.3856         estimate D2E/DX2                !
 ! R19   R(10,11)                1.409          estimate D2E/DX2                !
 ! R20   R(10,89)                1.0901         estimate D2E/DX2                !
 ! R21   R(11,12)                1.4093         estimate D2E/DX2                !
 ! R22   R(11,26)                1.4171         estimate D2E/DX2                !
 ! R23   R(12,13)                1.3925         estimate D2E/DX2                !
 ! R24   R(12,87)                1.0891         estimate D2E/DX2                !
 ! R25   R(13,86)                1.0907         estimate D2E/DX2                !
 ! R26   R(14,15)                1.3924         estimate D2E/DX2                !
 ! R27   R(14,82)                1.0908         estimate D2E/DX2                !
 ! R28   R(15,16)                1.4099         estimate D2E/DX2                !
 ! R29   R(15,83)                1.0891         estimate D2E/DX2                !
 ! R30   R(16,17)                1.41           estimate D2E/DX2                !
 ! R31   R(16,27)                1.4148         estimate D2E/DX2                !
 ! R32   R(17,88)                1.0898         estimate D2E/DX2                !
 ! R33   R(18,19)                1.4087         estimate D2E/DX2                !
 ! R34   R(18,79)                1.0901         estimate D2E/DX2                !
 ! R35   R(19,20)                1.4084         estimate D2E/DX2                !
 ! R36   R(19,28)                1.4187         estimate D2E/DX2                !
 ! R37   R(20,21)                1.3927         estimate D2E/DX2                !
 ! R38   R(20,80)                1.0894         estimate D2E/DX2                !
 ! R39   R(21,81)                1.0908         estimate D2E/DX2                !
 ! R40   R(22,23)                1.3917         estimate D2E/DX2                !
 ! R41   R(22,84)                1.0907         estimate D2E/DX2                !
 ! R42   R(23,24)                1.4102         estimate D2E/DX2                !
 ! R43   R(23,85)                1.089          estimate D2E/DX2                !
 ! R44   R(24,25)                1.41           estimate D2E/DX2                !
 ! R45   R(24,29)                1.4144         estimate D2E/DX2                !
 ! R46   R(25,78)                1.0899         estimate D2E/DX2                !
 ! R47   R(26,34)                1.4233         estimate D2E/DX2                !
 ! R48   R(26,35)                1.4135         estimate D2E/DX2                !
 ! R49   R(27,36)                1.4236         estimate D2E/DX2                !
 ! R50   R(27,37)                1.4153         estimate D2E/DX2                !
 ! R51   R(28,31)                1.4138         estimate D2E/DX2                !
 ! R52   R(28,33)                1.4216         estimate D2E/DX2                !
 ! R53   R(29,30)                1.4173         estimate D2E/DX2                !
 ! R54   R(29,32)                1.4226         estimate D2E/DX2                !
 ! R55   R(30,73)                1.402          estimate D2E/DX2                !
 ! R56   R(30,77)                1.4082         estimate D2E/DX2                !
 ! R57   R(31,58)                1.4031         estimate D2E/DX2                !
 ! R58   R(31,62)                1.409          estimate D2E/DX2                !
 ! R59   R(32,68)                1.4061         estimate D2E/DX2                !
 ! R60   R(32,72)                1.3994         estimate D2E/DX2                !
 ! R61   R(33,63)                1.3997         estimate D2E/DX2                !
 ! R62   R(33,67)                1.4069         estimate D2E/DX2                !
 ! R63   R(34,43)                1.3991         estimate D2E/DX2                !
 ! R64   R(34,47)                1.4057         estimate D2E/DX2                !
 ! R65   R(35,48)                1.4004         estimate D2E/DX2                !
 ! R66   R(35,52)                1.4103         estimate D2E/DX2                !
 ! R67   R(36,38)                1.399          estimate D2E/DX2                !
 ! R68   R(36,42)                1.4059         estimate D2E/DX2                !
 ! R69   R(37,53)                1.3996         estimate D2E/DX2                !
 ! R70   R(37,57)                1.4093         estimate D2E/DX2                !
 ! R71   R(38,39)                1.3965         estimate D2E/DX2                !
 ! R72   R(38,103)               1.0896         estimate D2E/DX2                !
 ! R73   R(39,40)                1.4006         estimate D2E/DX2                !
 ! R74   R(39,102)               1.088          estimate D2E/DX2                !
 ! R75   R(40,41)                1.4034         estimate D2E/DX2                !
 ! R76   R(40,94)                1.3691         estimate D2E/DX2                !
 ! R77   R(41,42)                1.3877         estimate D2E/DX2                !
 ! R78   R(41,98)                1.0896         estimate D2E/DX2                !
 ! R79   R(42,99)                1.0896         estimate D2E/DX2                !
 ! R80   R(43,44)                1.3964         estimate D2E/DX2                !
 ! R81   R(43,100)               1.0895         estimate D2E/DX2                !
 ! R82   R(44,45)                1.4007         estimate D2E/DX2                !
 ! R83   R(44,101)               1.0879         estimate D2E/DX2                !
 ! R84   R(45,46)                1.4034         estimate D2E/DX2                !
 ! R85   R(45,95)                1.3688         estimate D2E/DX2                !
 ! R86   R(46,47)                1.3879         estimate D2E/DX2                !
 ! R87   R(46,104)               1.0899         estimate D2E/DX2                !
 ! R88   R(47,105)               1.0898         estimate D2E/DX2                !
 ! R89   R(48,49)                1.3998         estimate D2E/DX2                !
 ! R90   R(48,145)               1.0885         estimate D2E/DX2                !
 ! R91   R(49,50)                1.4009         estimate D2E/DX2                !
 ! R92   R(49,144)               1.3703         estimate D2E/DX2                !
 ! R93   R(50,51)                1.3996         estimate D2E/DX2                !
 ! R94   R(50,143)               1.0871         estimate D2E/DX2                !
 ! R95   R(51,52)                1.3888         estimate D2E/DX2                !
 ! R96   R(51,142)               1.0905         estimate D2E/DX2                !
 ! R97   R(52,141)               1.088          estimate D2E/DX2                !
 ! R98   R(53,54)                1.4            estimate D2E/DX2                !
 ! R99   R(53,137)               1.0885         estimate D2E/DX2                !
 ! R100  R(54,55)                1.4009         estimate D2E/DX2                !
 ! R101  R(54,136)               1.3696         estimate D2E/DX2                !
 ! R102  R(55,56)                1.3994         estimate D2E/DX2                !
 ! R103  R(55,138)               1.087          estimate D2E/DX2                !
 ! R104  R(56,57)                1.389          estimate D2E/DX2                !
 ! R105  R(56,139)               1.0907         estimate D2E/DX2                !
 ! R106  R(57,140)               1.0883         estimate D2E/DX2                !
 ! R107  R(58,59)                1.3955         estimate D2E/DX2                !
 ! R108  R(58,130)               1.0884         estimate D2E/DX2                !
 ! R109  R(59,60)                1.3909         estimate D2E/DX2                !
 ! R110  R(59,129)               1.0907         estimate D2E/DX2                !
 ! R111  R(60,61)                1.4034         estimate D2E/DX2                !
 ! R112  R(60,128)               1.0885         estimate D2E/DX2                !
 ! R113  R(61,62)                1.3972         estimate D2E/DX2                !
 ! R114  R(61,126)               1.369          estimate D2E/DX2                !
 ! R115  R(62,127)               1.0869         estimate D2E/DX2                !
 ! R116  R(63,64)                1.3968         estimate D2E/DX2                !
 ! R117  R(63,111)               1.0896         estimate D2E/DX2                !
 ! R118  R(64,65)                1.4002         estimate D2E/DX2                !
 ! R119  R(64,110)               1.088          estimate D2E/DX2                !
 ! R120  R(65,66)                1.4037         estimate D2E/DX2                !
 ! R121  R(65,92)                1.3695         estimate D2E/DX2                !
 ! R122  R(66,67)                1.3877         estimate D2E/DX2                !
 ! R123  R(66,112)               1.0897         estimate D2E/DX2                !
 ! R124  R(67,113)               1.0896         estimate D2E/DX2                !
 ! R125  R(68,69)                1.3879         estimate D2E/DX2                !
 ! R126  R(68,109)               1.0899         estimate D2E/DX2                !
 ! R127  R(69,70)                1.4037         estimate D2E/DX2                !
 ! R128  R(69,108)               1.09           estimate D2E/DX2                !
 ! R129  R(70,71)                1.4006         estimate D2E/DX2                !
 ! R130  R(70,90)                1.3686         estimate D2E/DX2                !
 ! R131  R(71,72)                1.3966         estimate D2E/DX2                !
 ! R132  R(71,107)               1.088          estimate D2E/DX2                !
 ! R133  R(72,106)               1.0897         estimate D2E/DX2                !
 ! R134  R(73,74)                1.396          estimate D2E/DX2                !
 ! R135  R(73,131)               1.0882         estimate D2E/DX2                !
 ! R136  R(74,75)                1.3908         estimate D2E/DX2                !
 ! R137  R(74,132)               1.0903         estimate D2E/DX2                !
 ! R138  R(75,76)                1.4037         estimate D2E/DX2                !
 ! R139  R(75,133)               1.0888         estimate D2E/DX2                !
 ! R140  R(76,77)                1.3971         estimate D2E/DX2                !
 ! R141  R(76,134)               1.369          estimate D2E/DX2                !
 ! R142  R(77,135)               1.087          estimate D2E/DX2                !
 ! R143  R(90,91)                1.4227         estimate D2E/DX2                !
 ! R144  R(91,123)               1.102          estimate D2E/DX2                !
 ! R145  R(91,124)               1.1019         estimate D2E/DX2                !
 ! R146  R(91,125)               1.0946         estimate D2E/DX2                !
 ! R147  R(92,93)                1.4226         estimate D2E/DX2                !
 ! R148  R(93,114)               1.102          estimate D2E/DX2                !
 ! R149  R(93,115)               1.1019         estimate D2E/DX2                !
 ! R150  R(93,116)               1.0946         estimate D2E/DX2                !
 ! R151  R(94,97)                1.4229         estimate D2E/DX2                !
 ! R152  R(95,96)                1.4225         estimate D2E/DX2                !
 ! R153  R(96,117)               1.1021         estimate D2E/DX2                !
 ! R154  R(96,118)               1.102          estimate D2E/DX2                !
 ! R155  R(96,119)               1.0947         estimate D2E/DX2                !
 ! R156  R(97,120)               1.0946         estimate D2E/DX2                !
 ! R157  R(97,121)               1.102          estimate D2E/DX2                !
 ! R158  R(97,122)               1.1019         estimate D2E/DX2                !
 ! R159  R(126,149)              1.4234         estimate D2E/DX2                !
 ! R160  R(134,146)              1.4234         estimate D2E/DX2                !
 ! R161  R(136,147)              1.4229         estimate D2E/DX2                !
 ! R162  R(144,148)              1.4228         estimate D2E/DX2                !
 ! R163  R(146,150)              1.0947         estimate D2E/DX2                !
 ! R164  R(146,151)              1.1017         estimate D2E/DX2                !
 ! R165  R(146,152)              1.1016         estimate D2E/DX2                !
 ! R166  R(147,153)              1.0948         estimate D2E/DX2                !
 ! R167  R(147,154)              1.1016         estimate D2E/DX2                !
 ! R168  R(147,155)              1.1018         estimate D2E/DX2                !
 ! R169  R(148,156)              1.0949         estimate D2E/DX2                !
 ! R170  R(148,157)              1.1017         estimate D2E/DX2                !
 ! R171  R(148,158)              1.1018         estimate D2E/DX2                !
 ! R172  R(149,159)              1.0948         estimate D2E/DX2                !
 ! R173  R(149,160)              1.1017         estimate D2E/DX2                !
 ! R174  R(149,161)              1.1018         estimate D2E/DX2                !
 ! A1    A(2,1,5)              101.4003         estimate D2E/DX2                !
 ! A2    A(2,1,6)              112.9087         estimate D2E/DX2                !
 ! A3    A(2,1,9)              114.27           estimate D2E/DX2                !
 ! A4    A(5,1,6)              113.2803         estimate D2E/DX2                !
 ! A5    A(5,1,9)              114.1405         estimate D2E/DX2                !
 ! A6    A(6,1,9)              101.3946         estimate D2E/DX2                !
 ! A7    A(1,2,3)              110.4665         estimate D2E/DX2                !
 ! A8    A(1,2,18)             128.0655         estimate D2E/DX2                !
 ! A9    A(3,2,18)             121.4361         estimate D2E/DX2                !
 ! A10   A(2,3,4)              108.806          estimate D2E/DX2                !
 ! A11   A(2,3,21)             119.3711         estimate D2E/DX2                !
 ! A12   A(4,3,21)             131.8208         estimate D2E/DX2                !
 ! A13   A(3,4,5)              108.8221         estimate D2E/DX2                !
 ! A14   A(3,4,14)             131.889          estimate D2E/DX2                !
 ! A15   A(5,4,14)             119.2888         estimate D2E/DX2                !
 ! A16   A(1,5,4)              110.4868         estimate D2E/DX2                !
 ! A17   A(1,5,17)             128.0037         estimate D2E/DX2                !
 ! A18   A(4,5,17)             121.5081         estimate D2E/DX2                !
 ! A19   A(1,6,7)              110.4921         estimate D2E/DX2                !
 ! A20   A(1,6,10)             127.9968         estimate D2E/DX2                !
 ! A21   A(7,6,10)             121.5003         estimate D2E/DX2                !
 ! A22   A(6,7,8)              108.7751         estimate D2E/DX2                !
 ! A23   A(6,7,13)             119.2841         estimate D2E/DX2                !
 ! A24   A(8,7,13)             131.9408         estimate D2E/DX2                !
 ! A25   A(7,8,9)              108.8751         estimate D2E/DX2                !
 ! A26   A(7,8,22)             131.8381         estimate D2E/DX2                !
 ! A27   A(9,8,22)             119.2867         estimate D2E/DX2                !
 ! A28   A(1,9,8)              110.4623         estimate D2E/DX2                !
 ! A29   A(1,9,25)             128.0717         estimate D2E/DX2                !
 ! A30   A(8,9,25)             121.4603         estimate D2E/DX2                !
 ! A31   A(6,10,11)            119.2212         estimate D2E/DX2                !
 ! A32   A(6,10,89)            120.9504         estimate D2E/DX2                !
 ! A33   A(11,10,89)           119.8277         estimate D2E/DX2                !
 ! A34   A(10,11,12)           119.3492         estimate D2E/DX2                !
 ! A35   A(10,11,26)           120.1364         estimate D2E/DX2                !
 ! A36   A(12,11,26)           120.5113         estimate D2E/DX2                !
 ! A37   A(11,12,13)           121.0855         estimate D2E/DX2                !
 ! A38   A(11,12,87)           118.9053         estimate D2E/DX2                !
 ! A39   A(13,12,87)           120.0092         estimate D2E/DX2                !
 ! A40   A(7,13,12)            119.5504         estimate D2E/DX2                !
 ! A41   A(7,13,86)            120.8411         estimate D2E/DX2                !
 ! A42   A(12,13,86)           119.6029         estimate D2E/DX2                !
 ! A43   A(4,14,15)            119.5531         estimate D2E/DX2                !
 ! A44   A(4,14,82)            120.8747         estimate D2E/DX2                !
 ! A45   A(15,14,82)           119.5671         estimate D2E/DX2                !
 ! A46   A(14,15,16)           121.1381         estimate D2E/DX2                !
 ! A47   A(14,15,83)           119.9051         estimate D2E/DX2                !
 ! A48   A(16,15,83)           118.9568         estimate D2E/DX2                !
 ! A49   A(15,16,17)           119.2658         estimate D2E/DX2                !
 ! A50   A(15,16,27)           120.0927         estimate D2E/DX2                !
 ! A51   A(17,16,27)           120.6385         estimate D2E/DX2                !
 ! A52   A(5,17,16)            119.2394         estimate D2E/DX2                !
 ! A53   A(5,17,88)            120.9029         estimate D2E/DX2                !
 ! A54   A(16,17,88)           119.8575         estimate D2E/DX2                !
 ! A55   A(2,18,19)            119.1652         estimate D2E/DX2                !
 ! A56   A(2,18,79)            121.0577         estimate D2E/DX2                !
 ! A57   A(19,18,79)           119.7747         estimate D2E/DX2                !
 ! A58   A(18,19,20)           119.4735         estimate D2E/DX2                !
 ! A59   A(18,19,28)           120.5427         estimate D2E/DX2                !
 ! A60   A(20,19,28)           119.9764         estimate D2E/DX2                !
 ! A61   A(19,20,21)           121.0687         estimate D2E/DX2                !
 ! A62   A(19,20,80)           118.8916         estimate D2E/DX2                !
 ! A63   A(21,20,80)           120.0396         estimate D2E/DX2                !
 ! A64   A(3,21,20)            119.4842         estimate D2E/DX2                !
 ! A65   A(3,21,81)            120.8322         estimate D2E/DX2                !
 ! A66   A(20,21,81)           119.6802         estimate D2E/DX2                !
 ! A67   A(8,22,23)            119.5883         estimate D2E/DX2                !
 ! A68   A(8,22,84)            120.8248         estimate D2E/DX2                !
 ! A69   A(23,22,84)           119.5787         estimate D2E/DX2                !
 ! A70   A(22,23,24)           121.1356         estimate D2E/DX2                !
 ! A71   A(22,23,85)           119.8827         estimate D2E/DX2                !
 ! A72   A(24,23,85)           118.9816         estimate D2E/DX2                !
 ! A73   A(23,24,25)           119.2364         estimate D2E/DX2                !
 ! A74   A(23,24,29)           120.3973         estimate D2E/DX2                !
 ! A75   A(25,24,29)           120.3617         estimate D2E/DX2                !
 ! A76   A(9,25,24)            119.2834         estimate D2E/DX2                !
 ! A77   A(9,25,78)            120.8539         estimate D2E/DX2                !
 ! A78   A(24,25,78)           119.8625         estimate D2E/DX2                !
 ! A79   A(11,26,34)           119.1771         estimate D2E/DX2                !
 ! A80   A(11,26,35)           120.8583         estimate D2E/DX2                !
 ! A81   A(34,26,35)           119.9647         estimate D2E/DX2                !
 ! A82   A(16,27,36)           119.3874         estimate D2E/DX2                !
 ! A83   A(16,27,37)           120.9489         estimate D2E/DX2                !
 ! A84   A(36,27,37)           119.6637         estimate D2E/DX2                !
 ! A85   A(19,28,31)           120.7411         estimate D2E/DX2                !
 ! A86   A(19,28,33)           119.1267         estimate D2E/DX2                !
 ! A87   A(31,28,33)           120.1266         estimate D2E/DX2                !
 ! A88   A(24,29,30)           120.8701         estimate D2E/DX2                !
 ! A89   A(24,29,32)           119.822          estimate D2E/DX2                !
 ! A90   A(30,29,32)           119.303          estimate D2E/DX2                !
 ! A91   A(29,30,73)           120.9307         estimate D2E/DX2                !
 ! A92   A(29,30,77)           119.4679         estimate D2E/DX2                !
 ! A93   A(73,30,77)           119.601          estimate D2E/DX2                !
 ! A94   A(28,31,58)           120.7262         estimate D2E/DX2                !
 ! A95   A(28,31,62)           119.8059         estimate D2E/DX2                !
 ! A96   A(58,31,62)           119.4672         estimate D2E/DX2                !
 ! A97   A(29,32,68)           120.8339         estimate D2E/DX2                !
 ! A98   A(29,32,72)           120.7368         estimate D2E/DX2                !
 ! A99   A(68,32,72)           118.4279         estimate D2E/DX2                !
 ! A100  A(28,33,63)           120.7922         estimate D2E/DX2                !
 ! A101  A(28,33,67)           120.8296         estimate D2E/DX2                !
 ! A102  A(63,33,67)           118.3766         estimate D2E/DX2                !
 ! A103  A(26,34,43)           121.0075         estimate D2E/DX2                !
 ! A104  A(26,34,47)           120.5546         estimate D2E/DX2                !
 ! A105  A(43,34,47)           118.4374         estimate D2E/DX2                !
 ! A106  A(26,35,48)           120.2552         estimate D2E/DX2                !
 ! A107  A(26,35,52)           120.659          estimate D2E/DX2                !
 ! A108  A(48,35,52)           119.0832         estimate D2E/DX2                !
 ! A109  A(27,36,38)           120.8467         estimate D2E/DX2                !
 ! A110  A(27,36,42)           120.6666         estimate D2E/DX2                !
 ! A111  A(38,36,42)           118.4866         estimate D2E/DX2                !
 ! A112  A(27,37,53)           120.1602         estimate D2E/DX2                !
 ! A113  A(27,37,57)           120.6291         estimate D2E/DX2                !
 ! A114  A(53,37,57)           119.2079         estimate D2E/DX2                !
 ! A115  A(36,38,39)           121.126          estimate D2E/DX2                !
 ! A116  A(36,38,103)          119.3679         estimate D2E/DX2                !
 ! A117  A(39,38,103)          119.5045         estimate D2E/DX2                !
 ! A118  A(38,39,40)           119.8671         estimate D2E/DX2                !
 ! A119  A(38,39,102)          119.0745         estimate D2E/DX2                !
 ! A120  A(40,39,102)          121.0538         estimate D2E/DX2                !
 ! A121  A(39,40,41)           119.3349         estimate D2E/DX2                !
 ! A122  A(39,40,94)           124.722          estimate D2E/DX2                !
 ! A123  A(41,40,94)           115.943          estimate D2E/DX2                !
 ! A124  A(40,41,42)           120.3908         estimate D2E/DX2                !
 ! A125  A(40,41,98)           118.7598         estimate D2E/DX2                !
 ! A126  A(42,41,98)           120.8426         estimate D2E/DX2                !
 ! A127  A(36,42,41)           120.7845         estimate D2E/DX2                !
 ! A128  A(36,42,99)           119.3512         estimate D2E/DX2                !
 ! A129  A(41,42,99)           119.8637         estimate D2E/DX2                !
 ! A130  A(34,43,44)           121.1245         estimate D2E/DX2                !
 ! A131  A(34,43,100)          119.3587         estimate D2E/DX2                !
 ! A132  A(44,43,100)          119.5149         estimate D2E/DX2                !
 ! A133  A(43,44,45)           119.9064         estimate D2E/DX2                !
 ! A134  A(43,44,101)          119.0436         estimate D2E/DX2                !
 ! A135  A(45,44,101)          121.0444         estimate D2E/DX2                !
 ! A136  A(44,45,46)           119.3104         estimate D2E/DX2                !
 ! A137  A(44,45,95)           124.7137         estimate D2E/DX2                !
 ! A138  A(46,45,95)           115.9758         estimate D2E/DX2                !
 ! A139  A(45,46,47)           120.3571         estimate D2E/DX2                !
 ! A140  A(45,46,104)          118.7408         estimate D2E/DX2                !
 ! A141  A(47,46,104)          120.8979         estimate D2E/DX2                !
 ! A142  A(34,47,46)           120.8545         estimate D2E/DX2                !
 ! A143  A(34,47,105)          119.2238         estimate D2E/DX2                !
 ! A144  A(46,47,105)          119.9202         estimate D2E/DX2                !
 ! A145  A(35,48,49)           120.5733         estimate D2E/DX2                !
 ! A146  A(35,48,145)          120.7438         estimate D2E/DX2                !
 ! A147  A(49,48,145)          118.6829         estimate D2E/DX2                !
 ! A148  A(48,49,50)           120.5295         estimate D2E/DX2                !
 ! A149  A(48,49,144)          115.1281         estimate D2E/DX2                !
 ! A150  A(50,49,144)          124.3389         estimate D2E/DX2                !
 ! A151  A(49,50,51)           118.3777         estimate D2E/DX2                !
 ! A152  A(49,50,143)          121.5977         estimate D2E/DX2                !
 ! A153  A(51,50,143)          120.024          estimate D2E/DX2                !
 ! A154  A(50,51,52)           121.8119         estimate D2E/DX2                !
 ! A155  A(50,51,142)          118.9935         estimate D2E/DX2                !
 ! A156  A(52,51,142)          119.1891         estimate D2E/DX2                !
 ! A157  A(35,52,51)           119.6167         estimate D2E/DX2                !
 ! A158  A(35,52,141)          119.8475         estimate D2E/DX2                !
 ! A159  A(51,52,141)          120.5356         estimate D2E/DX2                !
 ! A160  A(37,53,54)           120.5345         estimate D2E/DX2                !
 ! A161  A(37,53,137)          120.7368         estimate D2E/DX2                !
 ! A162  A(54,53,137)          118.7285         estimate D2E/DX2                !
 ! A163  A(53,54,55)           120.4752         estimate D2E/DX2                !
 ! A164  A(53,54,136)          115.1777         estimate D2E/DX2                !
 ! A165  A(55,54,136)          124.3436         estimate D2E/DX2                !
 ! A166  A(54,55,56)           118.4359         estimate D2E/DX2                !
 ! A167  A(54,55,138)          121.5731         estimate D2E/DX2                !
 ! A168  A(56,55,138)          119.9906         estimate D2E/DX2                !
 ! A169  A(55,56,57)           121.7906         estimate D2E/DX2                !
 ! A170  A(55,56,139)          118.8731         estimate D2E/DX2                !
 ! A171  A(57,56,139)          119.3303         estimate D2E/DX2                !
 ! A172  A(37,57,56)           119.5517         estimate D2E/DX2                !
 ! A173  A(37,57,140)          119.7891         estimate D2E/DX2                !
 ! A174  A(56,57,140)          120.659          estimate D2E/DX2                !
 ! A175  A(31,58,59)           119.5384         estimate D2E/DX2                !
 ! A176  A(31,58,130)          119.7861         estimate D2E/DX2                !
 ! A177  A(59,58,130)          120.6748         estimate D2E/DX2                !
 ! A178  A(58,59,60)           121.5407         estimate D2E/DX2                !
 ! A179  A(58,59,129)          119.3299         estimate D2E/DX2                !
 ! A180  A(60,59,129)          119.1205         estimate D2E/DX2                !
 ! A181  A(59,60,61)           118.8981         estimate D2E/DX2                !
 ! A182  A(59,60,128)          121.8633         estimate D2E/DX2                !
 ! A183  A(61,60,128)          119.2385         estimate D2E/DX2                !
 ! A184  A(60,61,62)           120.4767         estimate D2E/DX2                !
 ! A185  A(60,61,126)          115.7044         estimate D2E/DX2                !
 ! A186  A(62,61,126)          123.815          estimate D2E/DX2                !
 ! A187  A(31,62,61)           120.0719         estimate D2E/DX2                !
 ! A188  A(31,62,127)          118.874          estimate D2E/DX2                !
 ! A189  A(61,62,127)          121.0537         estimate D2E/DX2                !
 ! A190  A(33,63,64)           121.1814         estimate D2E/DX2                !
 ! A191  A(33,63,111)          119.353          estimate D2E/DX2                !
 ! A192  A(64,63,111)          119.4643         estimate D2E/DX2                !
 ! A193  A(63,64,65)           119.8948         estimate D2E/DX2                !
 ! A194  A(63,64,110)          119.0241         estimate D2E/DX2                !
 ! A195  A(65,64,110)          121.0758         estimate D2E/DX2                !
 ! A196  A(64,65,66)           119.2898         estimate D2E/DX2                !
 ! A197  A(64,65,92)           124.7717         estimate D2E/DX2                !
 ! A198  A(66,65,92)           115.9384         estimate D2E/DX2                !
 ! A199  A(65,66,67)           120.4378         estimate D2E/DX2                !
 ! A200  A(65,66,112)          118.76           estimate D2E/DX2                !
 ! A201  A(67,66,112)          120.7931         estimate D2E/DX2                !
 ! A202  A(33,67,66)           120.8077         estimate D2E/DX2                !
 ! A203  A(33,67,113)          119.3745         estimate D2E/DX2                !
 ! A204  A(66,67,113)          119.8175         estimate D2E/DX2                !
 ! A205  A(32,68,69)           120.808          estimate D2E/DX2                !
 ! A206  A(32,68,109)          119.3205         estimate D2E/DX2                !
 ! A207  A(69,68,109)          119.8701         estimate D2E/DX2                !
 ! A208  A(68,69,70)           120.4123         estimate D2E/DX2                !
 ! A209  A(68,69,108)          120.9203         estimate D2E/DX2                !
 ! A210  A(70,69,108)          118.6635         estimate D2E/DX2                !
 ! A211  A(69,70,71)           119.2983         estimate D2E/DX2                !
 ! A212  A(69,70,90)           115.958          estimate D2E/DX2                !
 ! A213  A(71,70,90)           124.7437         estimate D2E/DX2                !
 ! A214  A(70,71,72)           119.8826         estimate D2E/DX2                !
 ! A215  A(70,71,107)          121.0681         estimate D2E/DX2                !
 ! A216  A(72,71,107)          119.0413         estimate D2E/DX2                !
 ! A217  A(32,72,71)           121.1601         estimate D2E/DX2                !
 ! A218  A(32,72,106)          119.3084         estimate D2E/DX2                !
 ! A219  A(71,72,106)          119.5299         estimate D2E/DX2                !
 ! A220  A(30,73,74)           119.5014         estimate D2E/DX2                !
 ! A221  A(30,73,131)          119.8998         estimate D2E/DX2                !
 ! A222  A(74,73,131)          120.5985         estimate D2E/DX2                !
 ! A223  A(73,74,75)           121.4414         estimate D2E/DX2                !
 ! A224  A(73,74,132)          119.2162         estimate D2E/DX2                !
 ! A225  A(75,74,132)          119.335          estimate D2E/DX2                !
 ! A226  A(74,75,76)           119.0299         estimate D2E/DX2                !
 ! A227  A(74,75,133)          121.7833         estimate D2E/DX2                !
 ! A228  A(76,75,133)          119.1865         estimate D2E/DX2                !
 ! A229  A(75,76,77)           120.3725         estimate D2E/DX2                !
 ! A230  A(75,76,134)          115.7489         estimate D2E/DX2                !
 ! A231  A(77,76,134)          123.8739         estimate D2E/DX2                !
 ! A232  A(30,77,76)           120.0488         estimate D2E/DX2                !
 ! A233  A(30,77,135)          118.7455         estimate D2E/DX2                !
 ! A234  A(76,77,135)          121.2055         estimate D2E/DX2                !
 ! A235  A(70,90,91)           117.4786         estimate D2E/DX2                !
 ! A236  A(90,91,123)          111.5198         estimate D2E/DX2                !
 ! A237  A(90,91,124)          111.5359         estimate D2E/DX2                !
 ! A238  A(90,91,125)          105.8985         estimate D2E/DX2                !
 ! A239  A(123,91,124)         109.1715         estimate D2E/DX2                !
 ! A240  A(123,91,125)         109.317          estimate D2E/DX2                !
 ! A241  A(124,91,125)         109.3197         estimate D2E/DX2                !
 ! A242  A(65,92,93)           117.4175         estimate D2E/DX2                !
 ! A243  A(92,93,114)          111.4958         estimate D2E/DX2                !
 ! A244  A(92,93,115)          111.5599         estimate D2E/DX2                !
 ! A245  A(92,93,116)          105.9164         estimate D2E/DX2                !
 ! A246  A(114,93,115)         109.1618         estimate D2E/DX2                !
 ! A247  A(114,93,116)         109.3167         estimate D2E/DX2                !
 ! A248  A(115,93,116)         109.3125         estimate D2E/DX2                !
 ! A249  A(40,94,97)           117.4427         estimate D2E/DX2                !
 ! A250  A(45,95,96)           117.4592         estimate D2E/DX2                !
 ! A251  A(95,96,117)          111.5435         estimate D2E/DX2                !
 ! A252  A(95,96,118)          111.5264         estimate D2E/DX2                !
 ! A253  A(95,96,119)          105.9025         estimate D2E/DX2                !
 ! A254  A(117,96,118)         109.1589         estimate D2E/DX2                !
 ! A255  A(117,96,119)         109.3211         estimate D2E/DX2                !
 ! A256  A(118,96,119)         109.3104         estimate D2E/DX2                !
 ! A257  A(94,97,120)          105.9026         estimate D2E/DX2                !
 ! A258  A(94,97,121)          111.5259         estimate D2E/DX2                !
 ! A259  A(94,97,122)          111.512          estimate D2E/DX2                !
 ! A260  A(120,97,121)         109.3269         estimate D2E/DX2                !
 ! A261  A(120,97,122)         109.3279         estimate D2E/DX2                !
 ! A262  A(121,97,122)         109.1681         estimate D2E/DX2                !
 ! A263  A(61,126,149)         117.7436         estimate D2E/DX2                !
 ! A264  A(76,134,146)         117.6932         estimate D2E/DX2                !
 ! A265  A(54,136,147)         117.5171         estimate D2E/DX2                !
 ! A266  A(49,144,148)         117.4846         estimate D2E/DX2                !
 ! A267  A(134,146,150)        105.8466         estimate D2E/DX2                !
 ! A268  A(134,146,151)        111.5607         estimate D2E/DX2                !
 ! A269  A(134,146,152)        111.5419         estimate D2E/DX2                !
 ! A270  A(150,146,151)        109.3815         estimate D2E/DX2                !
 ! A271  A(150,146,152)        109.3253         estimate D2E/DX2                !
 ! A272  A(151,146,152)        109.1094         estimate D2E/DX2                !
 ! A273  A(136,147,153)        105.8494         estimate D2E/DX2                !
 ! A274  A(136,147,154)        111.5172         estimate D2E/DX2                !
 ! A275  A(136,147,155)        111.5711         estimate D2E/DX2                !
 ! A276  A(153,147,154)        109.3412         estimate D2E/DX2                !
 ! A277  A(153,147,155)        109.2769         estimate D2E/DX2                !
 ! A278  A(154,147,155)        109.2033         estimate D2E/DX2                !
 ! A279  A(144,148,156)        105.8847         estimate D2E/DX2                !
 ! A280  A(144,148,157)        111.5217         estimate D2E/DX2                !
 ! A281  A(144,148,158)        111.5872         estimate D2E/DX2                !
 ! A282  A(156,148,157)        109.3419         estimate D2E/DX2                !
 ! A283  A(156,148,158)        109.2669         estimate D2E/DX2                !
 ! A284  A(157,148,158)        109.1586         estimate D2E/DX2                !
 ! A285  A(126,149,159)        105.8081         estimate D2E/DX2                !
 ! A286  A(126,149,160)        111.5416         estimate D2E/DX2                !
 ! A287  A(126,149,161)        111.5386         estimate D2E/DX2                !
 ! A288  A(159,149,160)        109.3842         estimate D2E/DX2                !
 ! A289  A(159,149,161)        109.3401         estimate D2E/DX2                !
 ! A290  A(160,149,161)        109.151          estimate D2E/DX2                !
 ! D1    D(5,1,2,3)             -1.3503         estimate D2E/DX2                !
 ! D2    D(5,1,2,18)          -179.2964         estimate D2E/DX2                !
 ! D3    D(6,1,2,3)            120.1781         estimate D2E/DX2                !
 ! D4    D(6,1,2,18)           -57.768          estimate D2E/DX2                !
 ! D5    D(9,1,2,3)           -124.6194         estimate D2E/DX2                !
 ! D6    D(9,1,2,18)            57.4345         estimate D2E/DX2                !
 ! D7    D(2,1,5,4)              0.9304         estimate D2E/DX2                !
 ! D8    D(2,1,5,17)          -178.6414         estimate D2E/DX2                !
 ! D9    D(6,1,5,4)           -120.3384         estimate D2E/DX2                !
 ! D10   D(6,1,5,17)            60.0898         estimate D2E/DX2                !
 ! D11   D(9,1,5,4)            124.2881         estimate D2E/DX2                !
 ! D12   D(9,1,5,17)           -55.2837         estimate D2E/DX2                !
 ! D13   D(2,1,6,7)            122.5282         estimate D2E/DX2                !
 ! D14   D(2,1,6,10)           -56.278          estimate D2E/DX2                !
 ! D15   D(5,1,6,7)           -122.9251         estimate D2E/DX2                !
 ! D16   D(5,1,6,10)            58.2686         estimate D2E/DX2                !
 ! D17   D(9,1,6,7)             -0.1809         estimate D2E/DX2                !
 ! D18   D(9,1,6,10)          -178.9872         estimate D2E/DX2                !
 ! D19   D(2,1,9,8)           -121.7755         estimate D2E/DX2                !
 ! D20   D(2,1,9,25)            59.0938         estimate D2E/DX2                !
 ! D21   D(5,1,9,8)            122.1411         estimate D2E/DX2                !
 ! D22   D(5,1,9,25)           -56.9897         estimate D2E/DX2                !
 ! D23   D(6,1,9,8)             -0.009          estimate D2E/DX2                !
 ! D24   D(6,1,9,25)          -179.1397         estimate D2E/DX2                !
 ! D25   D(1,2,3,4)              1.3056         estimate D2E/DX2                !
 ! D26   D(1,2,3,21)          -178.2226         estimate D2E/DX2                !
 ! D27   D(18,2,3,4)           179.4104         estimate D2E/DX2                !
 ! D28   D(18,2,3,21)           -0.1178         estimate D2E/DX2                !
 ! D29   D(1,2,18,19)          177.9553         estimate D2E/DX2                !
 ! D30   D(1,2,18,79)           -1.4831         estimate D2E/DX2                !
 ! D31   D(3,2,18,19)            0.2108         estimate D2E/DX2                !
 ! D32   D(3,2,18,79)         -179.2277         estimate D2E/DX2                !
 ! D33   D(2,3,4,5)             -0.6752         estimate D2E/DX2                !
 ! D34   D(2,3,4,14)           179.1665         estimate D2E/DX2                !
 ! D35   D(21,3,4,5)           178.773          estimate D2E/DX2                !
 ! D36   D(21,3,4,14)           -1.3852         estimate D2E/DX2                !
 ! D37   D(2,3,21,20)           -0.1808         estimate D2E/DX2                !
 ! D38   D(2,3,21,81)         -179.5093         estimate D2E/DX2                !
 ! D39   D(4,3,21,20)         -179.5815         estimate D2E/DX2                !
 ! D40   D(4,3,21,81)            1.09           estimate D2E/DX2                !
 ! D41   D(3,4,5,1)             -0.2203         estimate D2E/DX2                !
 ! D42   D(3,4,5,17)           179.3839         estimate D2E/DX2                !
 ! D43   D(14,4,5,1)           179.9148         estimate D2E/DX2                !
 ! D44   D(14,4,5,17)           -0.481          estimate D2E/DX2                !
 ! D45   D(3,4,14,15)          179.8786         estimate D2E/DX2                !
 ! D46   D(3,4,14,82)            0.7034         estimate D2E/DX2                !
 ! D47   D(5,4,14,15)           -0.2931         estimate D2E/DX2                !
 ! D48   D(5,4,14,82)         -179.4683         estimate D2E/DX2                !
 ! D49   D(1,5,17,16)         -179.6192         estimate D2E/DX2                !
 ! D50   D(1,5,17,88)            0.5579         estimate D2E/DX2                !
 ! D51   D(4,5,17,16)            0.8513         estimate D2E/DX2                !
 ! D52   D(4,5,17,88)         -178.9716         estimate D2E/DX2                !
 ! D53   D(1,6,7,8)              0.3026         estimate D2E/DX2                !
 ! D54   D(1,6,7,13)          -179.6238         estimate D2E/DX2                !
 ! D55   D(10,6,7,8)           179.1993         estimate D2E/DX2                !
 ! D56   D(10,6,7,13)           -0.7272         estimate D2E/DX2                !
 ! D57   D(1,6,10,11)          179.214          estimate D2E/DX2                !
 ! D58   D(1,6,10,89)           -0.5019         estimate D2E/DX2                !
 ! D59   D(7,6,10,11)            0.5255         estimate D2E/DX2                !
 ! D60   D(7,6,10,89)         -179.1904         estimate D2E/DX2                !
 ! D61   D(6,7,8,9)             -0.3052         estimate D2E/DX2                !
 ! D62   D(6,7,8,22)           179.8384         estimate D2E/DX2                !
 ! D63   D(13,7,8,9)           179.6086         estimate D2E/DX2                !
 ! D64   D(13,7,8,22)           -0.2478         estimate D2E/DX2                !
 ! D65   D(6,7,13,12)            0.06           estimate D2E/DX2                !
 ! D66   D(6,7,13,86)         -179.0745         estimate D2E/DX2                !
 ! D67   D(8,7,13,12)         -179.8464         estimate D2E/DX2                !
 ! D68   D(8,7,13,86)            1.0191         estimate D2E/DX2                !
 ! D69   D(7,8,9,1)              0.1878         estimate D2E/DX2                !
 ! D70   D(7,8,9,25)           179.3855         estimate D2E/DX2                !
 ! D71   D(22,8,9,1)          -179.9349         estimate D2E/DX2                !
 ! D72   D(22,8,9,25)           -0.7372         estimate D2E/DX2                !
 ! D73   D(7,8,22,23)          179.795          estimate D2E/DX2                !
 ! D74   D(7,8,22,84)            0.8386         estimate D2E/DX2                !
 ! D75   D(9,8,22,23)           -0.0492         estimate D2E/DX2                !
 ! D76   D(9,8,22,84)         -179.0056         estimate D2E/DX2                !
 ! D77   D(1,9,25,24)          179.7739         estimate D2E/DX2                !
 ! D78   D(1,9,25,78)           -0.1034         estimate D2E/DX2                !
 ! D79   D(8,9,25,24)            0.7287         estimate D2E/DX2                !
 ! D80   D(8,9,25,78)         -179.1486         estimate D2E/DX2                !
 ! D81   D(6,10,11,12)           0.3281         estimate D2E/DX2                !
 ! D82   D(6,10,11,26)         179.6825         estimate D2E/DX2                !
 ! D83   D(89,10,11,12)       -179.9527         estimate D2E/DX2                !
 ! D84   D(89,10,11,26)         -0.5983         estimate D2E/DX2                !
 ! D85   D(10,11,12,13)         -0.9952         estimate D2E/DX2                !
 ! D86   D(10,11,12,87)        179.1103         estimate D2E/DX2                !
 ! D87   D(26,11,12,13)        179.6528         estimate D2E/DX2                !
 ! D88   D(26,11,12,87)         -0.2416         estimate D2E/DX2                !
 ! D89   D(10,11,26,34)        -39.2047         estimate D2E/DX2                !
 ! D90   D(10,11,26,35)        140.7306         estimate D2E/DX2                !
 ! D91   D(12,11,26,34)        140.1421         estimate D2E/DX2                !
 ! D92   D(12,11,26,35)        -39.9226         estimate D2E/DX2                !
 ! D93   D(11,12,13,7)           0.7954         estimate D2E/DX2                !
 ! D94   D(11,12,13,86)        179.9408         estimate D2E/DX2                !
 ! D95   D(87,12,13,7)        -179.3113         estimate D2E/DX2                !
 ! D96   D(87,12,13,86)         -0.166          estimate D2E/DX2                !
 ! D97   D(4,14,15,16)           0.6858         estimate D2E/DX2                !
 ! D98   D(4,14,15,83)        -179.3167         estimate D2E/DX2                !
 ! D99   D(82,14,15,16)        179.8719         estimate D2E/DX2                !
 ! D100  D(82,14,15,83)         -0.1306         estimate D2E/DX2                !
 ! D101  D(14,15,16,17)         -0.3134         estimate D2E/DX2                !
 ! D102  D(14,15,16,27)        179.0523         estimate D2E/DX2                !
 ! D103  D(83,15,16,17)        179.6891         estimate D2E/DX2                !
 ! D104  D(83,15,16,27)         -0.9452         estimate D2E/DX2                !
 ! D105  D(15,16,17,5)          -0.4521         estimate D2E/DX2                !
 ! D106  D(15,16,17,88)        179.3727         estimate D2E/DX2                !
 ! D107  D(27,16,17,5)        -179.8142         estimate D2E/DX2                !
 ! D108  D(27,16,17,88)          0.0106         estimate D2E/DX2                !
 ! D109  D(15,16,27,36)        -36.6555         estimate D2E/DX2                !
 ! D110  D(15,16,27,37)        143.4278         estimate D2E/DX2                !
 ! D111  D(17,16,27,36)        142.7014         estimate D2E/DX2                !
 ! D112  D(17,16,27,37)        -37.2153         estimate D2E/DX2                !
 ! D113  D(2,18,19,20)          -0.0078         estimate D2E/DX2                !
 ! D114  D(2,18,19,28)        -179.0201         estimate D2E/DX2                !
 ! D115  D(79,18,19,20)        179.438          estimate D2E/DX2                !
 ! D116  D(79,18,19,28)          0.4257         estimate D2E/DX2                !
 ! D117  D(18,19,20,21)         -0.2923         estimate D2E/DX2                !
 ! D118  D(18,19,20,80)        179.8072         estimate D2E/DX2                !
 ! D119  D(28,19,20,21)        178.7257         estimate D2E/DX2                !
 ! D120  D(28,19,20,80)         -1.1748         estimate D2E/DX2                !
 ! D121  D(18,19,28,31)        -42.7388         estimate D2E/DX2                !
 ! D122  D(18,19,28,33)        136.3988         estimate D2E/DX2                !
 ! D123  D(20,19,28,31)        138.2538         estimate D2E/DX2                !
 ! D124  D(20,19,28,33)        -42.6085         estimate D2E/DX2                !
 ! D125  D(19,20,21,3)           0.3859         estimate D2E/DX2                !
 ! D126  D(19,20,21,81)        179.7222         estimate D2E/DX2                !
 ! D127  D(80,20,21,3)        -179.7148         estimate D2E/DX2                !
 ! D128  D(80,20,21,81)         -0.3785         estimate D2E/DX2                !
 ! D129  D(8,22,23,24)           0.8302         estimate D2E/DX2                !
 ! D130  D(8,22,23,85)        -179.1723         estimate D2E/DX2                !
 ! D131  D(84,22,23,24)        179.7997         estimate D2E/DX2                !
 ! D132  D(84,22,23,85)         -0.2029         estimate D2E/DX2                !
 ! D133  D(22,23,24,25)         -0.8358         estimate D2E/DX2                !
 ! D134  D(22,23,24,29)        179.9385         estimate D2E/DX2                !
 ! D135  D(85,23,24,25)        179.1668         estimate D2E/DX2                !
 ! D136  D(85,23,24,29)         -0.0589         estimate D2E/DX2                !
 ! D137  D(23,24,25,9)           0.0527         estimate D2E/DX2                !
 ! D138  D(23,24,25,78)        179.9312         estimate D2E/DX2                !
 ! D139  D(29,24,25,9)         179.2787         estimate D2E/DX2                !
 ! D140  D(29,24,25,78)         -0.8428         estimate D2E/DX2                !
 ! D141  D(23,24,29,30)        -35.9406         estimate D2E/DX2                !
 ! D142  D(23,24,29,32)        143.2475         estimate D2E/DX2                !
 ! D143  D(25,24,29,30)        144.8425         estimate D2E/DX2                !
 ! D144  D(25,24,29,32)        -35.9694         estimate D2E/DX2                !
 ! D145  D(11,26,34,43)        133.2996         estimate D2E/DX2                !
 ! D146  D(11,26,34,47)        -46.4438         estimate D2E/DX2                !
 ! D147  D(35,26,34,43)        -46.6362         estimate D2E/DX2                !
 ! D148  D(35,26,34,47)        133.6203         estimate D2E/DX2                !
 ! D149  D(11,26,35,48)        145.3875         estimate D2E/DX2                !
 ! D150  D(11,26,35,52)        -35.2041         estimate D2E/DX2                !
 ! D151  D(34,26,35,48)        -34.6777         estimate D2E/DX2                !
 ! D152  D(34,26,35,52)        144.7307         estimate D2E/DX2                !
 ! D153  D(16,27,36,38)        132.7769         estimate D2E/DX2                !
 ! D154  D(16,27,36,42)        -47.1264         estimate D2E/DX2                !
 ! D155  D(37,27,36,38)        -47.3053         estimate D2E/DX2                !
 ! D156  D(37,27,36,42)        132.7914         estimate D2E/DX2                !
 ! D157  D(16,27,37,53)        143.3823         estimate D2E/DX2                !
 ! D158  D(16,27,37,57)        -37.241          estimate D2E/DX2                !
 ! D159  D(36,27,37,53)        -36.5341         estimate D2E/DX2                !
 ! D160  D(36,27,37,57)        142.8425         estimate D2E/DX2                !
[...]
 Alpha virt. eigenvalues --    2.36682   2.36999   2.37027   2.37218   2.37406
 Alpha virt. eigenvalues --    2.37480   2.37823   2.39893   2.40254   2.40679
 Alpha virt. eigenvalues --    2.40902   2.42405   2.42530   2.42865   2.43075
 Alpha virt. eigenvalues --    2.43312   2.43544   2.43953   2.44501   2.48309
 Alpha virt. eigenvalues --    2.48910   2.49172   2.50377   2.50714   2.50800
 Alpha virt. eigenvalues --    2.51112   2.51449   2.51776   2.52043   2.52817
 Alpha virt. eigenvalues --    2.53208   2.53286   2.53863   2.54486   2.54762
 Alpha virt. eigenvalues --    2.54902   2.55100   2.55462   2.55625   2.55988
 Alpha virt. eigenvalues --    2.56090   2.56268   2.56409   2.56788   2.57669
 Alpha virt. eigenvalues --    2.57871   2.58292   2.58779   2.59326   2.59874
 Alpha virt. eigenvalues --    2.60922   2.61295   2.61953   2.62576   2.62744
 Alpha virt. eigenvalues --    2.63078   2.63208   2.63646   2.63851   2.64058
 Alpha virt. eigenvalues --    2.65016   2.65583   2.65631   2.65762   2.66128
 Alpha virt. eigenvalues --    2.66428   2.66635   2.66707   2.66971   2.67216
 Alpha virt. eigenvalues --    2.67311   2.67379   2.67529   2.67594   2.67806
 Alpha virt. eigenvalues --    2.68306   2.68666   2.68783   2.69011   2.69138
 Alpha virt. eigenvalues --    2.69407   2.69584   2.69736   2.70026   2.70499
 Alpha virt. eigenvalues --    2.70680   2.70958   2.72258   2.72674   2.73476
 Alpha virt. eigenvalues --    2.73854   2.74272   2.74912   2.76248   2.76335
 Alpha virt. eigenvalues --    2.76523   2.76813   2.77102   2.77206   2.77631
 Alpha virt. eigenvalues --    2.78831   2.79099   2.79368   2.79891   2.80420
 Alpha virt. eigenvalues --    2.81279   2.81923   2.82259   2.82469   2.82846
 Alpha virt. eigenvalues --    2.83190   2.83601   2.84602   2.85208   2.85503
 Alpha virt. eigenvalues --    2.85685   2.86282   2.86928   2.87111   2.88002
 Alpha virt. eigenvalues --    2.88192   2.88880   2.90624   2.91144   2.91437
 Alpha virt. eigenvalues --    2.92665   2.92868   2.93118   2.93158   2.93875
 Alpha virt. eigenvalues --    2.95172   2.97646   2.97794   2.98317   2.98674
 Alpha virt. eigenvalues --    2.98890   2.99242   2.99325   2.99592   3.00056
 Alpha virt. eigenvalues --    3.00085   3.00198   3.00993   3.01282   3.01730
 Alpha virt. eigenvalues --    3.02784   3.03640   3.03908   3.06814   3.08984
 Alpha virt. eigenvalues --    3.09786   3.10036   3.10551   3.10954   3.12790
 Alpha virt. eigenvalues --    3.12834   3.15038   3.18240   3.22014   3.22228
 Alpha virt. eigenvalues --    3.24325   3.25246   3.26401   3.26605   3.26888
 Alpha virt. eigenvalues --    3.28385   3.32896   3.33044   3.37306   3.38926
 Alpha virt. eigenvalues --    3.43596   3.43645   3.43825   3.43954   3.44838
 Alpha virt. eigenvalues --    3.44911   3.44930   3.45080   3.53081   3.53152
 Alpha virt. eigenvalues --    4.05460   4.05690   4.05710   4.05742   4.05781
 Alpha virt. eigenvalues --    4.05893   4.05969   4.06019   4.09874   4.09993
 Alpha virt. eigenvalues --    4.10884   4.11084   4.11241   4.11652   4.12231
 Alpha virt. eigenvalues --    4.12566   4.12867   4.12914   4.13878   4.14096
 Alpha virt. eigenvalues --    4.14156   4.14371   4.14690   4.14880   4.15961
 Alpha virt. eigenvalues --    4.16485   4.16696   4.17156   4.17649   4.17812
 Alpha virt. eigenvalues --    4.17994   4.18107   4.18435   4.20628   4.20859
 Alpha virt. eigenvalues --    4.21107   4.21553   4.22376   4.22959   4.23067
 Alpha virt. eigenvalues --    4.24070   4.24696   4.24858   4.24941   4.24985
 Alpha virt. eigenvalues --    4.25157   4.25824   4.25946   4.32182   4.32233
 Alpha virt. eigenvalues --    4.32639   4.32711   4.33246   4.34013   4.34303
 Alpha virt. eigenvalues --    4.34520   4.35461   4.36510   4.36585   4.36687
 Alpha virt. eigenvalues --    4.36987   4.37924   4.38237   4.38597   4.39353
 Alpha virt. eigenvalues --    4.39893   4.40334   4.40512   4.47492   4.49412
 Alpha virt. eigenvalues --    4.49591   4.50000   4.50189   4.52315   4.52500
 Alpha virt. eigenvalues --    4.53242   4.54049   4.55619   4.55794   4.57863
 Alpha virt. eigenvalues --    4.64486   4.76678   4.77569   4.77637   4.77961
 Alpha virt. eigenvalues --    4.79002   4.79684   4.79782   4.79936   4.80570
 Alpha virt. eigenvalues --    4.85960   4.86070   4.90631
          Condensed to atoms (all electrons):
 Mulliken atomic charges:
              1
     1  C   -0.272607
     2  C    0.123028
     3  C    0.073192
     4  C    0.072529
     5  C    0.123549
     6  C    0.124681
     7  C    0.073677
     8  C    0.072840
     9  C    0.124785
    10  C   -0.244024
    11  C    0.287070
    12  C   -0.176300
    13  C   -0.204069
    14  C   -0.203641
    15  C   -0.179367
    16  C    0.293896
    17  C   -0.242947
    18  C   -0.240923
    19  C    0.289821
    20  C   -0.178070
    21  C   -0.204319
    22  C   -0.203240
    23  C   -0.176538
    24  C    0.293110
    25  C   -0.246043
    26  N   -0.664618
    27  N   -0.664503
    28  N   -0.662262
    29  N   -0.662035
    30  C    0.287988
    31  C    0.299061
    32  C    0.270255
    33  C    0.261563
    34  C    0.272119
    35  C    0.297820
    36  C    0.261101
    37  C    0.300593
    38  C   -0.162724
    39  C   -0.205946
    40  C    0.379663
    41  C   -0.184699
    42  C   -0.157831
    43  C   -0.164676
    44  C   -0.204876
    45  C    0.380401
    46  C   -0.191825
    47  C   -0.167493
    48  C   -0.235327
    49  C    0.377793
    50  C   -0.201962
    51  C   -0.146683
    52  C   -0.172959
    53  C   -0.234337
    54  C    0.378822
    55  C   -0.201046
    56  C   -0.154264
    57  C   -0.178153
    58  C   -0.185631
    59  C   -0.149471
    60  C   -0.175210
    61  C    0.380887
    62  C   -0.257376
    63  C   -0.168329
    64  C   -0.207201
    65  C    0.378643
    66  C   -0.186171
    67  C   -0.159200
    68  C   -0.169070
    69  C   -0.192475
    70  C    0.379720
    71  C   -0.207079
    72  C   -0.169288
    73  C   -0.177874
    74  C   -0.142639
    75  C   -0.174853
    76  C    0.378734
    77  C   -0.253002
    78  H    0.149949
    79  H    0.151583
    80  H    0.139337
    81  H    0.127726
    82  H    0.127410
    83  H    0.139946
    84  H    0.129101
    85  H    0.142299
    86  H    0.129266
    87  H    0.141938
    88  H    0.152814
    89  H    0.149067
    90  O   -0.508396
    91  C   -0.213667
    92  O   -0.509421
    93  C   -0.213808
    94  O   -0.509364
    95  O   -0.508524
    96  C   -0.213461
    97  C   -0.213789
    98  H    0.139457
    99  H    0.146846
   100  H    0.142716
   101  H    0.131431
   102  H    0.132400
   103  H    0.144538
   104  H    0.145572
   105  H    0.150833
   106  H    0.145798
   107  H    0.132745
   108  H    0.146379
   109  H    0.151865
   110  H    0.132924
   111  H    0.146755
   112  H    0.139623
   113  H    0.147026
   114  H    0.151128
   115  H    0.150285
   116  H    0.168925
   117  H    0.150298
   118  H    0.150653
   119  H    0.168582
   120  H    0.168439
   121  H    0.151586
   122  H    0.150221
   123  H    0.148853
   124  H    0.152140
   125  H    0.169164
   126  O   -0.512009
   127  H    0.143412
   128  H    0.131456
   129  H    0.132164
   130  H    0.146388
   131  H    0.141264
   132  H    0.130401
   133  H    0.131504
   134  O   -0.511664
   135  H    0.143251
   136  O   -0.510261
   137  H    0.148614
   138  H    0.126273
   139  H    0.133215
   140  H    0.147548
   141  H    0.141093
   142  H    0.127725
   143  H    0.125017
   144  O   -0.509952
   145  H    0.148321
   146  C   -0.213684
   147  C   -0.212526
   148  C   -0.212242
   149  C   -0.213730
   150  H    0.166529
   151  H    0.153205
   152  H    0.152481
   153  H    0.166922
   154  H    0.151541
   155  H    0.149352
   156  H    0.167205
   157  H    0.150745
   158  H    0.149037
   159  H    0.166159
   160  H    0.154415
   161  H    0.151481
 Sum of Mulliken atomic charges =   0.00000
 Mulliken charges with hydrogens summed into heavy atoms:
              1
     1  C   -0.272607
     2  C    0.123028
     3  C    0.073192
     4  C    0.072529
     5  C    0.123549
     6  C    0.124681
     7  C    0.073677
     8  C    0.072840
     9  C    0.124785
    10  C   -0.094957
    11  C    0.287070
    12  C   -0.034362
    13  C   -0.074803
    14  C   -0.076232
    15  C   -0.039420
    16  C    0.293896
    17  C   -0.090133
    18  C   -0.089340
    19  C    0.289821
    20  C   -0.038733
    21  C   -0.076593
    22  C   -0.074139
    23  C   -0.034239
    24  C    0.293110
    25  C   -0.096094
    26  N   -0.664618
    27  N   -0.664503
    28  N   -0.662262
    29  N   -0.662035
    30  C    0.287988
    31  C    0.299061
    32  C    0.270255
    33  C    0.261563
    34  C    0.272119
    35  C    0.297820
    36  C    0.261101
    37  C    0.300593
    38  C   -0.018186
    39  C   -0.073546
    40  C    0.379663
    41  C   -0.045242
    42  C   -0.010985
    43  C   -0.021960
    44  C   -0.073445
    45  C    0.380401
    46  C   -0.046253
    47  C   -0.016659
    48  C   -0.087006
    49  C    0.377793
    50  C   -0.076945
    51  C   -0.018958
    52  C   -0.031866
    53  C   -0.085723
    54  C    0.378822
    55  C   -0.074774
    56  C   -0.021049
    57  C   -0.030605
    58  C   -0.039243
    59  C   -0.017308
    60  C   -0.043755
    61  C    0.380887
    62  C   -0.113964
    63  C   -0.021574
    64  C   -0.074277
    65  C    0.378643
    66  C   -0.046548
    67  C   -0.012174
    68  C   -0.017205
    69  C   -0.046096
    70  C    0.379720
    71  C   -0.074334
    72  C   -0.023490
    73  C   -0.036611
    74  C   -0.012239
    75  C   -0.043349
    76  C    0.378734
    77  C   -0.109751
    90  O   -0.508396
    91  C    0.256490
    92  O   -0.509421
    93  C    0.256530
    94  O   -0.509364
    95  O   -0.508524
    96  C    0.256072
    97  C    0.256457
   126  O   -0.512009
   134  O   -0.511664
   136  O   -0.510261
   144  O   -0.509952
   146  C    0.258531
   147  C    0.255288
   148  C    0.254745
   149  C    0.258325
 Sum of Mulliken charges with hydrogens summed into heavy atoms =   0.00000
 Electronic spatial extent (au):  <R**2>=         110213.7708
 Charge=              0.0000 electrons
 Dipole moment (field-independent basis, Debye):
    X=              3.0729    Y=              2.5960    Z=              2.6542  Tot=              4.8194
 Quadrupole moment (field-independent basis, Debye-Ang):
   XX=           -460.0164   YY=           -490.6755   ZZ=           -492.9620
   XY=             10.9587   XZ=            -12.2309   YZ=             -1.5360
 Traceless Quadrupole moment (field-independent basis, Debye-Ang):
   XX=             21.2016   YY=             -9.4576   ZZ=            -11.7440
   XY=             10.9587   XZ=            -12.2309   YZ=             -1.5360
 Octapole moment (field-independent basis, Debye-Ang**2):
  XXX=            508.1571  YYY=            154.4667  ZZZ=             86.9274  XYY=           -252.6482
  XXY=            174.3729  XXZ=            136.2916  XZZ=             44.9706  YZZ=            171.1487
  YYZ=             62.8183  XYZ=             31.8849
 Hexadecapole moment (field-independent basis, Debye-Ang**3):
 XXXX=         -59894.5589 YYYY=         -57114.1949 ZZZZ=         -20760.4198 XXXY=            -67.5353
 XXXZ=          -1640.5711 YYYX=            884.7789 YYYZ=             92.3080 ZZZX=           -454.5774
 ZZZY=           -115.3765 XXYY=         -17948.4506 XXZZ=         -12429.0732 YYZZ=         -11995.4006
 XXYZ=            -92.7882 YYXZ=           -569.4104 ZZXY=             11.6507
 N-N= 1.624253406680D+04 E-N=-4.165845845304D+04  KE= 3.911092633621D+03
 Leave Link  601 at Thu Aug  7 22:53:16 2014, MaxMem= 2147483648 cpu:      49.3
 (Enter /opt/g09/l9999.exe)
 1\1\GINC-CHPC-SCANDIUM\FOpt\RB3LYP\6-31G(d)\C81H68N4O8\JARVIST\07-Aug-
 2014\0\\#p opt b3lyp/6-31g*\\Auto Spiro\\0,1\C,12.5864228514,12.065733
 4245,13.2068052898\C,11.2674216398,11.3813672327,12.8288162121\C,11.48
 63417191,10.0259263786,12.5130401743\C,12.9128138513,9.7312655638,12.6
 631693254\C,13.5789757522,10.9058229877,13.0645035268\C,12.926343665,1
 3.276191953,12.3294686337\C,13.0797777631,14.4322539172,13.1195123926\
 C,12.8648807525,14.0756128975,14.5233524198\C,12.5719564397,12.7003471
 43,14.6023021432\C,13.0637823925,13.3220196022,10.9513043391\C,13.3769
 192739,14.5465718204,10.3310726355\C,13.5447144986,15.698942313,11.122
 5607568\C,13.3880462466,15.6488731644,12.5058091487\C,13.6435868515,8.
 5542736196,12.4847857387\C,15.0199977981,8.5624446746,12.6978220636\C,
 15.6856541501,9.7342672935,13.1068315262\C,14.9450542063,10.9176327627
 ,13.2956650474\C,10.0021597102,11.9423180815,12.7615894072\C,8.9108693
 915,11.1353298939,12.3860705768\C,9.1288140295,9.7788335787,12.0788530
 95\C,10.4063249185,9.2259531888,12.1323517459\C,12.9052787223,14.83827
 89135,15.6933121004\C,12.6489871225,14.2285512866,16.9187033959\C,12.3
 688404735,12.8504694923,16.999771953\C,12.3328030243,12.0829381472,15.
 8197698383\N,13.5354185386,14.61346368,8.9206678066\N,17.0848277259,9.
 7107769674,13.3427048782\N,7.6027841576,11.6828758525,12.2982875738\N,
 12.1105866306,12.2440331039,18.2569002776\C,12.8718648969,12.600990135
 5,19.4012557867\C,7.1255644712,12.5926492574,13.27597734\C,11.08343967
 01,11.2627951212,18.3680534918\C,6.7681205767,11.3195137994,11.2012349
 245\C,14.23950952,13.5726889399,8.2474769106\C,13.0101645598,15.706600
 6072,8.1867550959\C,17.6631367959,8.5764102069,13.9865344239\C,17.9075
 905323,10.8028967418,12.967190906\C,18.7937586079,7.9487141406,13.4541
 633235\C,19.3708843522,6.8448613025,14.0856463254\C,18.8006421867,6.33
 57531624,15.2578138988\C,17.6594962132,6.9527535562,15.7914901689\C,17
 .1057956311,8.0633179526,15.1702323828\C,13.725861912,12.9938699268,7.
 0823560749\C,14.4179701136,11.9830909507,6.4119378981\C,15.6348504668,
 11.5154617919,6.9200473783\C,16.1502315047,12.0806666708,8.0959632789\
 C,15.4673562014,13.1010258503,8.7436446548\C,13.7097914601,16.22510894
 54,7.0917226988\C,13.1834250737,17.2888687535,6.3493329497\C,11.958435
 0168,17.8648430317,6.7048071756\C,11.2730887906,17.3464700683,7.808708
 0061\C,11.7729041122,16.2790415999,8.5435347609\C,18.9852215779,11.182
 1324501,13.774186612\C,19.8189295365,12.2419461792,13.3977070838\C,19.
 5744138519,12.9516255002,12.2168577642\C,18.4875765646,12.5705265257,1
 1.4228349719\C,17.6615878359,11.5097367245,11.7730726679\C,7.461344918
 7,12.436194299,14.6284069076\C,6.971722946,13.3456434073,15.5677783677
 \C,6.1413703532,14.3967687762,15.1955604427\C,5.8010235678,14.54884802
 38,13.8436555507\C,6.2964608475,13.6612282111,12.8858894049\C,7.253012
 3192,11.3526597448,9.8896699062\C,6.4464378072,10.9814620021,8.8112680
 242\C,5.1214747338,10.5908016993,9.0340533711\C,4.6239959824,10.565292
 7372,10.3457316605\C,5.4387145007,10.9134326194,11.4137313873\C,9.8175
 01727,11.4800275195,17.7954570033\C,8.8164564846,10.5245080671,17.9028
 412178\C,9.0444815366,9.3308304523,18.6040008617\C,10.2973734985,9.107
 3152451,19.1852747503\C,11.3067897823,10.0636024819,19.0532175724\C,14
 .2519432247,12.8230490746,19.3031740668\C,14.9753790294,13.1738731918,
 20.4446507101\C,14.3574967558,13.2904426617,21.6844630322\C,12.9768792
 398,13.0615430276,21.7833451484\C,12.2333953144,12.7289480094,20.64904
 52904\H,12.1215835457,11.0195348769,15.8738664671\H,9.8441246693,12.99
 12449171,12.9919981343\H,8.2825138679,9.1607278836,11.7971147941\H,10.
 5482879479,8.17530966,11.8917461783\H,13.1539706994,7.6363617766,12.16
 91275538\H,15.5960543978,7.6552245846,12.5479875778\H,13.118116491,15.
 9037363469,15.6572314781\H,12.6638905037,14.8175780919,17.8298247795\H
 ,13.5226697601,16.5522203816,13.0954096667\H,13.799313796,16.636979859
 9,10.640011888\H,15.4470640698,11.8228269798,13.6222463955\H,12.931342
 7795,12.4298724646,10.3470662131\O,7.9893731658,8.4636056226,18.662157
 3718\C,8.1728369458,7.2342441978,19.3430763531\O,4.2411285578,10.21823
 12558,8.0563652429\C,4.6940189175,10.2224438612,6.7133040867\O,19.2729
 919456,5.2562428414,15.9512445072\O,16.3902304126,10.5271644482,6.3530
 295513\C,15.908903283,9.9168892016,5.1680209731\C,20.4263354123,4.5975
 181781,15.4564345874\H,17.232248073,6.5523502047,16.705633242\H,16.230
 3312597,8.5424094336,15.5974870456\H,12.7769229196,13.343608579,6.6879
 746643\H,13.9902822989,11.5631706168,5.5085724942\H,20.2504371386,6.38
 74802341,13.6469979349\H,19.2338000644,8.3324153715,12.5388891545\H,17
 .0973989317,11.7115154696,8.4773985175\H,15.8783434401,13.5370192266,9
 .6490136963\H,12.2804673251,9.8774943607,19.4956202895\H,10.5080802224
 ,8.1917040069,19.7262634171\H,7.8384397933,10.6869976303,17.4600476734
 \H,9.6273797114,12.4033342469,17.2568672387\H,6.8590331086,11.01557729
 13,7.8093033409\H,8.2767349154,11.6657922666,9.7091429452\H,3.59700503
 01,10.2513350763,10.5051992008\H,5.0491214672,10.8770046641,12.4263361
 653\H,5.5356166265,9.531762539,6.5676523239\H,4.9960582914,11.22805973
 04,6.3904851611\H,3.8471881674,9.8903728568,6.109645789\H,15.805510917
 6,10.6438947186,4.3510050683\H,14.942235648,9.4215411817,5.3314960985\
 H,16.6541383492,9.1686060952,4.8914113221\H,20.6273120463,3.7805191912
 ,16.1521063827\H,21.2949710044,5.2692109143,15.4264753097\H,20.2579211
 03,4.1846414167,14.4525551806\H,8.4149817252,7.390261363,20.4032145205
 \H,8.9640756018,6.6291337347,18.8802713611\H,7.2221024971,6.7032953724
 ,19.2658871893\O,4.9871504293,15.6084620444,13.5547342002\H,6.05659617
 35,13.7799582472,11.8372939213\H,5.7470405978,15.1015099048,15.9199651
 403\H,7.2303885133,13.2185660494,16.6160721107\H,8.0942768872,11.61172
 27034,14.937208345\H,14.7492148521,12.7164207567,18.3454745592\H,16.04
 6093105,13.3422816702,20.3637885616\H,14.911880083,13.5515724796,22.57
 97862324\O,12.4425508669,13.2039596137,23.0336514398\H,11.1646299205,1
 2.5678610847,20.70686644\O,20.8402778333,12.5124460985,14.2663040303\H
 ,19.1945979295,10.6640482486,14.7030023181\H,20.205737306,13.776940879
 4,11.9104262699\H,18.2978571624,13.1101033817,10.4981878856\H,16.83410
 57216,11.221698564,11.1343319644\H,11.2167798964,15.8800555691,9.38437
 89387\H,10.3165949889,17.7812463742,8.0876789976\H,11.5373898074,18.69
 14155894,6.1452230314\O,13.9577952846,17.7021361117,5.3000290504\H,14.
 6685667017,15.8133697109,6.7979867081\C,11.0515897869,12.9855023341,23
 .2003985823\C,21.6973857132,13.6020163221,13.9711551817\C,13.506956282
 ,18.8024103091,4.5289040679\C,4.5995577778,15.8122930587,12.206238479\
 H,10.8501007654,13.1374048516,24.2626412083\H,10.7649564724,11.9634162
 116,22.9191026989\H,10.4563146506,13.6981255024,22.6139065068\H,22.418
 5653777,13.6462907723,14.7896919346\H,21.145362834,14.5502287291,13.92
 29453363\H,22.2339201776,13.4514268894,13.0246460225\H,14.2717953979,1
 8.9684240758,3.7676400137\H,13.4009027841,19.7092578153,5.1394156928\H
 ,12.5484547942,18.5879150496,4.0371843752\H,3.9453180622,16.686369842,
 12.2119586304\H,4.0494339665,14.9496054201,11.8075020255\H,5.465755352
 3,16.013302434,11.5615659191\\Version=EM64L-G09RevA.02\State=1-A\HF=-3
 948.3014369\RMSD=2.945e-09\RMSF=1.607e-06\Dipole=0.0289625,-0.5852178,
 -1.8032897\Quadrupole=-9.2488772,-0.4565698,9.705447,-5.1254972,3.9820
 518,-14.3299937\PG=C01 [X(C81H68N4O8)]\\@


 PENOTUS DIED A HUNDRED YEARS OLD WANTING BUT TWO...
 AND HE USED TO SAY BEFORE HE DIED, HAVING SPENT HIS
 WHOLE LIFE IN VAINLY SEARCHING AFTER THE PHILOSOPHER'S
 STONE, THAT IF HE HAD A MORTAL ENEMY HE DID NOT DARE
 TO ENCOUNTER OPENLY, HE WOULD ADVISE HIM ABOVE ALL
 THINGS TO GIVE HIMSELF UP TO THE STUDY AND PRACTICE
 OF ALCHEMY.  --  NICOLAS LEMERY, M.D.
 "A COURSE OF CHYMISTRY", WALTER KETTILBY, LONDON, 1686
 Job cpu time:  4 days 13 hours 18 minutes 56.7 seconds.
 File lengths (MBytes):  RWF=   1450 Int=      0 D2E=      0 Chk=    144 Scr=      1
 Normal termination of Gaussian 09 at Thu Aug  7 22:53:16 2014.
