 Entering Gaussian System, Link 0=g09
 Input=b3lyp-631gs_opt/HF_5.com
 Output=b3lyp-631gs_opt/HF_5.log
 Initial command:
 /opt/g09/l1.exe /home/jarvist/super_spiro/Gau-37806.inp -scrdir=/home/jarvist/super_spiro/
 Default is to use a total of   8 processors:
                                8 via shared-memory
                                1 via Linda
 Entering Link 1 = /opt/g09/l1.exe PID=     37808.
  
 Copyright (c) 1988,1990,1992,1993,1995,1998,2003,2009, Gaussian, Inc.
                  All Rights Reserved.
  
 This is part of the Gaussian(R) 09 program.  It is based on
 the Gaussian(R) 03 system (copyright 2003, Gaussian, Inc.),
 the Gaussian(R) 98 system (copyright 1998, Gaussian, Inc.),
 the Gaussian(R) 94 system (copyright 1995, Gaussian, Inc.),
 the Gaussian 92(TM) system (copyright 1992, Gaussian, Inc.),
 the Gaussian 90(TM) system (copyright 1990, Gaussian, Inc.),
 the Gaussian 88(TM) system (copyright 1988, Gaussian, Inc.),
 the Gaussian 86(TM) system (copyright 1986, Carnegie Mellon
 University), and the Gaussian 82(TM) system (copyright 1983,
 Carnegie Mellon University). Gaussian is a federally registered
 trademark of Gaussian, Inc.
  
 This software contains proprietary and confidential information,
 including trade secrets, belonging to Gaussian, Inc.
  
 This software is provided under written license and may be
 used, copied, transmitted, or stored only in accord with that
 written license.
  
 The following legend is applicable only to US Government
 contracts under FAR:
  
                    RESTRICTED RIGHTS LEGEND
  
 Use, reproduction and disclosure by the US Government is
 subject to restrictions as set forth in subparagraphs (a)
 and (c) of the Commercial Computer Software - Restricted
 Rights clause in FAR 52.227-19.
  
 Gaussian, Inc.
 340 Quinnipiac St., Bldg. 40, Wallingford CT 06492
  
  
 ---------------------------------------------------------------
 Warning -- This program may not be used in any manner that
 competes with the business of Gaussian, Inc. or will provide
 assistance to any competitor of Gaussian, Inc.  The licensee
 of this program is prohibited from giving any competitor of
 Gaussian, Inc. access to this program.  By using this program,
 the user acknowledges that Gaussian, Inc. is engaged in the
 business of creating and licensing software in the field of
 computational chemistry and represents and warrants to the
 licensee that it is not a competitor of Gaussian, Inc. and that
 it will not use this program in any manner prohibited above.
 ---------------------------------------------------------------
  

 Cite this work as:
 Gaussian 09, Revision A.02,
 M. J. Frisch, G. W. Trucks, H. B. Schlegel, G. E. Scuseria, 
 M. A. Robb, J. R. Cheeseman, G. Scalmani, V. Barone, B. Mennucci, 
 G. A. Petersson, H. Nakatsuji, M. Caricato, X. Li, H. P. Hratchian, 
 A. F. Izmaylov, J. Bloino, G. Zheng, J. L. Sonnenberg, M. Hada, 
 M. Ehara, K. Toyota, R. Fukuda, J. Hasegawa, M. Ishida, T. Nakajima, 
 Y. Honda, O. Kitao, H. Nakai, T. Vreven, J. A. Montgomery, Jr., 
 J. E. Peralta, F. Ogliaro, M. Bearpark, J. J. Heyd, E. Brothers, 
 K. N. Kudin, V. N. Staroverov, R. Kobayashi, J. Normand, 
 K. Raghavachari, A. Rendell, J. C. Burant, S. S. Iyengar, J. Tomasi, 
 M. Cossi, N. Rega, J. M. Millam, M. Klene, J. E. Knox, J. B. Cross, 
 V. Bakken, C. Adamo, J. Jaramillo, R. Gomperts, R. E. Stratmann, 
 O. Yazyev, A. J. Austin, R. Cammi, C. Pomelli, J. W. Ochterski, 
 R. L. Martin, K. Morokuma, V. G. Zakrzewski, G. A. Voth, 
 P. Salvador, J. J. Dannenberg, S. Dapprich, A. D. Daniels, 
 O. Farkas, J. B. Foresman, J. V. Ortiz, J. Cioslowski, 
 and D. J. Fox, Gaussian, Inc., Wallingford CT, 2009.
 
 ******************************************
 Gaussian 09:  EM64L-G09RevA.02 11-Jun-2009
                 7-Aug-2014 
 ******************************************
 %mem=16GB
 %nprocs=24
 Will use up to   24 processors via shared memory.
 Default route:  MaxDisk=100GB
 -------------------
 #p opt b3lyp/6-31g*
 -------------------
 1/14=-1,18=20,19=15,26=3,38=1/1,3;
 2/9=110,12=2,17=6,18=5,40=1/2;
 3/5=1,6=6,7=1,11=2,16=1,25=1,30=1,71=1,74=-5/1,2,3;
 4//1;
 5/5=2,38=5/2;
 6/7=2,8=2,9=2,10=2,28=1/1;
 7//1,2,3,16;
 1/14=-1,18=20,19=15/3(2);
 2/9=110/2;
 99//99;
 2/9=110/2;
 3/5=1,6=6,7=1,11=2,16=1,25=1,30=1,71=1,74=-5/1,2,3;
 4/5=5,16=3/1;
 5/5=2,38=5/2;
 7//1,2,3,16;
 1/14=-1,18=20,19=15/3(-5);
 2/9=110/2;
 6/7=2,8=2,9=2,10=2,19=2,28=1/1;
 99/9=1/99;
 Leave Link    1 at Thu Aug  7 22:53:16 2014, MaxMem= 2147483648 cpu:       1.7
 (Enter /opt/g09/l101.exe)
 ----------
 Auto Spiro
 ----------
 Symbolic Z-matrix:
 Charge =  0 Multiplicity = 1
 C                     12.32234   10.31435   12.99365 
 C                     11.02373   9.62019   12.58485 
 C                     11.26492   8.27069   12.25409 
 C                     12.67889   7.97813   12.48072 
 C                     13.32579   9.16367   12.88349 
 C                     12.66735   11.5196   12.11325 
 C                     12.85076   12.67329   12.90591 
 C                     12.66546   12.31501   14.30828 
 C                     12.30998   10.95005   14.38663 
 C                     12.76487   11.56451   10.73329 
 C                     13.0478   12.7935   10.10339 
 C                     13.22486   13.94721   10.89215 
 C                     13.12757   13.89317   12.28097 
 C                     13.41131   6.78921   12.38285 
 C                     14.77292   6.79887   12.67708 
 C                     15.41934   7.98708   13.06353 
 C                     14.68418   9.1807    13.16318 
 C                     9.7546    10.16971   12.46885 
 C                     8.70438   9.36997   11.98876 
 C                     8.9472    8.02994   11.63969 
 C                     10.21767   7.47529   11.77439 
 C                     12.79194   13.05504   15.48725 
 C                     12.54257   12.44152   16.7143 
 C                     12.16025   11.08881   16.78759 
 C                     12.05163   10.33742   15.60018 
 N                     13.12264   12.88769   8.69605 
 N                     16.81687   8.00181   13.34124 
 N                     7.3964    9.92416   11.85807 
 N                     11.90935   10.4924   18.0477 
 C                     12.74161   10.80837   19.15177 
 C                     6.76164   10.41254   13.03033 
 C                     10.8795   9.53143   18.21236 
 C                     6.75571   9.99704   10.60971 
 C                     13.66044   11.8471   7.90299 
 C                     12.59865   14.04008   8.05452 
 C                     17.40034   7.13416   14.2802 
 C                     17.62906   8.86723   12.55817 
 C                     18.78031   6.87865   14.27443 
 C                     19.37034   6.04198   15.22624 
 C                     18.58534   5.42569   16.20524 
 C                     17.2061   5.67384   16.22079 
 C                     16.624    6.51679   15.2838 
 C                     13.14847   11.57988   6.62746 
 C                     13.69653   10.57926   5.81934 
 C                     14.76661   9.81118   6.28855 
 C                     15.28526   10.07392   7.56484 
 C                     14.7492   11.07838   8.35564 
 C                     13.44543   14.91248   7.33401 
 C                     12.92175   16.03809   6.68312 
 C                     11.55565   16.30213   6.77103 
 C                     10.69646   15.46478   7.48011 
 C                     11.21442   14.32537   8.11233 
 C                     18.15956   10.06     13.09516 
 C                     18.95115   10.90568   12.30459 
 C                     19.20338   10.56004   10.97821 
 C                     18.69821   9.38784   10.41984 
 C                     17.9189   8.53519   11.21516 
 C                     6.28852   9.50624   14.00761 
 C                     5.67206   9.97427   15.17732 
 C                     5.51071   11.34631   15.35819 
 C                     5.95246   12.26419   14.40668 
 C                     6.58416   11.79764   13.24544 
 C                     7.47857   9.89871   9.40969 
 C                     6.83949   9.97827   8.16905 
 C                     5.45711   10.17696   8.09885 
 C                     4.72793   10.28574   9.29054 
 C                     5.36213   10.19129   10.52192 
 C                     9.66181   9.65589   17.51817 
 C                     8.64368   8.73134   17.69718 
 C                     8.80251   7.65748   18.58412 
 C                     10.00431   7.52807   19.2887 
 C                     11.03111   8.45525   19.09429 
 C                     14.13902   10.55272   19.08341 
 C                     14.9637   10.80475   20.18506 
 C                     14.40621   11.28317   21.37342 
 C                     13.04185   11.53213   21.46712 
 C                     12.21361   11.31317   20.36035 
 H                     11.79008   9.28067   15.65092 
 H                     9.56541   11.21562   12.71209 
 H                     8.11617   7.42816   11.27412 
 H                     10.38512   6.42982   11.51196 
 H                     12.92993   5.86109   12.07131 
 H                     15.36049   5.88528   12.59757 
 H                     13.0765   14.10792   15.45893 
 H                     12.64322   13.01248   17.63713 
 H                     13.27236   14.80148   12.86791 
 H                     13.44359   14.89236   10.39615 
 H                     15.18414   10.09425   13.48558 
 H                     12.59863   10.67216   10.13036 
 O                     7.73379   6.80055   18.69036 
 C                     7.8651    5.70838   19.59125 
 O                     4.73279   10.27615   6.93277 
 C                     5.45501   10.18889   5.71394 
 O                     19.06058   4.57921   17.18032 
 O                     15.37428   8.79698   5.58825 
 C                     14.86425   8.50495   4.29438 
 C                     20.45313   4.30347   17.17376 
 H                     16.59651   5.19949   16.98985 
 H                     15.55183   6.70224   15.32698 
 H                     12.3086   12.16538   6.25467 
 H                     13.26932   10.40537   4.83368 
 H                     20.44509   5.87602   15.18133 
 H                     19.40912   7.34124   13.51459 
 H                     16.13183   9.48739   7.92024 
 H                     15.18048   11.27755   9.33543 
 H                     11.96321   8.34249   19.64681 
 H                     10.16246   6.70832   19.98635 
 H                     7.70172   8.8448    17.16156 
 H                     9.5128    10.48624   16.829 
 H                     7.44149   9.89174   7.2664 
 H                     8.55794   9.75835   9.43931 
 H                     3.64961   10.43469   9.2338 
 H                     4.77202   10.26685   11.43462 
 H                     5.96678   9.21728   5.61127 
 H                     6.20097   10.99657   5.62415 
 H                     4.71368   10.29206   4.91444 
 H                     14.96194   9.36811   3.61578 
 H                     13.80662   8.19763   4.33535 
 H                     15.46721   7.6748    3.91187 
 H                     20.63026   3.61724   18.0085 
 H                     21.05039   5.21863   17.32306 
 H                     20.76778   3.82021   16.23368 
 H                     8.02269   6.05436   20.62583 
 H                     8.69577   5.04357   19.30357 
 H                     6.92254   5.15414   19.53479 
 H                     5.81651   13.32885   14.57811 
 O                     7.07019   12.61198   12.26496 
 H                     5.02613   11.71063   16.26399 
 H                     5.30483   9.28074   15.92975 
 O                     6.46373   8.18926   13.71372 
 O                     14.57973   10.02907   17.90718 
 H                     16.03019   10.60064   20.13079 
 H                     15.0517   11.46269   22.23313 
 H                     12.58882   11.90533   22.38422 
 O                     10.86608   11.5257   20.53786 
 H                     19.35566   11.83006   12.70848 
 O                     17.84066   10.31409   14.39659 
 H                     19.81088   11.22354   10.36249 
 H                     18.91822   9.14054   9.38434 
 O                     17.40324   7.35077   10.78592 
 O                     10.4618   13.42276   8.79716 
 H                     9.63323   15.68711   7.52231 
 H                     11.15045   17.18276   6.27248 
 H                     13.57013   16.71142   6.12814 
 O                     14.76619   14.57674   7.33582 
 C                     17.69813   6.93693   9.45534 
 C                     9.05775   13.65069   8.88621 
 C                     6.00151   7.22575   14.65727 
 C                     15.96292   9.70583   17.79382 
 H                     17.21257   5.96357   9.33454 
 H                     18.78287   6.82807   9.29922 
 H                     17.28979   7.63792   8.7114 
 H                     16.25678   8.93476   18.52308 
 H                     16.59388   10.59793   17.93624 
 H                     16.10051   9.31854   16.77972 
 H                     4.91488   7.30848   14.81734 
 H                     6.52401   7.31837   15.6214 
 H                     6.23006   6.25031   14.21642 
 H                     8.6545    12.81705   9.46952 
 H                     8.58751   13.65949   7.89026 
 H                     8.84041   14.60187   9.39798 
 C                     15.65911   15.39127   6.58431 
 H                     16.64771   14.93894   6.71006 
 H                     15.67978   16.4261   6.96217 
 H                     15.39333   15.3999   5.51553 
 C                     18.34771   11.5125   14.97615 
 H                     17.97796   11.52392   16.0062 
 H                     17.9771   12.40478   14.44779 
 H                     19.44887   11.5217   14.9832 
 C                     6.90887   14.01665   12.4364 
 H                     7.36711   14.47793   11.55559 
 H                     5.84495   14.29689   12.48411 
 H                     7.42319   14.37498   13.3419 
 C                     10.26997   12.54894   19.73101 
 H                     10.77608   13.51359   19.89714 
 H                     9.22857   12.62227   20.06205 
 H                     10.29429   12.30216   18.66108 
 
 NAtoms=    177 NQM=    177 NQMF=      0 NMic=      0 NMicF=      0 NTot=    177.
                    Isotopes and Nuclear Properties:
 (Nuclear quadrupole moments (NQMom) in fm**2, nuclear magnetic moments (NMagM)
  in nuclear magnetons)

  Atom         1           2           3           4           5           6           7           8           9          10
 IAtWgt=          12          12          12          12          12          12          12          12          12          12
 AtmWgt=  12.0000000  12.0000000  12.0000000  12.0000000  12.0000000  12.0000000  12.0000000  12.0000000  12.0000000  12.0000000
 NucSpn=           0           0           0           0           0           0           0           0           0           0
 AtZEff=   0.0000000   0.0000000   0.0000000   0.0000000   0.0000000   0.0000000   0.0000000   0.0000000   0.0000000   0.0000000
 NQMom=    0.0000000   0.0000000   0.0000000   0.0000000   0.0000000   0.0000000   0.0000000   0.0000000   0.0000000   0.0000000
 NMagM=    0.0000000   0.0000000   0.0000000   0.0000000   0.0000000   0.0000000   0.0000000   0.0000000   0.0000000   0.0000000

  Atom        11          12          13          14          15          16          17          18          19          20
 IAtWgt=          12          12          12          12          12          12          12          12          12          12
 AtmWgt=  12.0000000  12.0000000  12.0000000  12.0000000  12.0000000  12.0000000  12.0000000  12.0000000  12.0000000  12.0000000
 NucSpn=           0           0           0           0           0           0           0           0           0           0
 AtZEff=   0.0000000   0.0000000   0.0000000   0.0000000   0.0000000   0.0000000   0.0000000   0.0000000   0.0000000   0.0000000
 NQMom=    0.0000000   0.0000000   0.0000000   0.0000000   0.0000000   0.0000000   0.0000000   0.0000000   0.0000000   0.0000000
 NMagM=    0.0000000   0.0000000   0.0000000   0.0000000   0.0000000   0.0000000   0.0000000   0.0000000   0.0000000   0.0000000

  Atom        21          22          23          24          25          26          27          28          29          30
 IAtWgt=          12          12          12          12          12          14          14          14          14          12
 AtmWgt=  12.0000000  12.0000000  12.0000000  12.0000000  12.0000000  14.0030740  14.0030740  14.0030740  14.0030740  12.0000000
 NucSpn=           0           0           0           0           0           2           2           2           2           0
 AtZEff=   0.0000000   0.0000000   0.0000000   0.0000000   0.0000000   0.0000000   0.0000000   0.0000000   0.0000000   0.0000000
 NQMom=    0.0000000   0.0000000   0.0000000   0.0000000   0.0000000   2.0440000   2.0440000   2.0440000   2.0440000   0.0000000
 NMagM=    0.0000000   0.0000000   0.0000000   0.0000000   0.0000000   0.4037610   0.4037610   0.4037610   0.4037610   0.0000000

  Atom        31          32          33          34          35          36          37          38          39          40
 IAtWgt=          12          12          12          12          12          12          12          12          12          12
 AtmWgt=  12.0000000  12.0000000  12.0000000  12.0000000  12.0000000  12.0000000  12.0000000  12.0000000  12.0000000  12.0000000
 NucSpn=           0           0           0           0           0           0           0           0           0           0
 AtZEff=   0.0000000   0.0000000   0.0000000   0.0000000   0.0000000   0.0000000   0.0000000   0.0000000   0.0000000   0.0000000
 NQMom=    0.0000000   0.0000000   0.0000000   0.0000000   0.0000000   0.0000000   0.0000000   0.0000000   0.0000000   0.0000000
 NMagM=    0.0000000   0.0000000   0.0000000   0.0000000   0.0000000   0.0000000   0.0000000   0.0000000   0.0000000   0.0000000

  Atom        41          42          43          44          45          46          47          48          49          50
 IAtWgt=          12          12          12          12          12          12          12          12          12          12
 AtmWgt=  12.0000000  12.0000000  12.0000000  12.0000000  12.0000000  12.0000000  12.0000000  12.0000000  12.0000000  12.0000000
 NucSpn=           0           0           0           0           0           0           0           0           0           0
 AtZEff=   0.0000000   0.0000000   0.0000000   0.0000000   0.0000000   0.0000000   0.0000000   0.0000000   0.0000000   0.0000000
 NQMom=    0.0000000   0.0000000   0.0000000   0.0000000   0.0000000   0.0000000   0.0000000   0.0000000   0.0000000   0.0000000
 NMagM=    0.0000000   0.0000000   0.0000000   0.0000000   0.0000000   0.0000000   0.0000000   0.0000000   0.0000000   0.0000000

  Atom        51          52          53          54          55          56          57          58          59          60
 IAtWgt=          12          12          12          12          12          12          12          12          12          12
 AtmWgt=  12.0000000  12.0000000  12.0000000  12.0000000  12.0000000  12.0000000  12.0000000  12.0000000  12.0000000  12.0000000
 NucSpn=           0           0           0           0           0           0           0           0           0           0
 AtZEff=   0.0000000   0.0000000   0.0000000   0.0000000   0.0000000   0.0000000   0.0000000   0.0000000   0.0000000   0.0000000
 NQMom=    0.0000000   0.0000000   0.0000000   0.0000000   0.0000000   0.0000000   0.0000000   0.0000000   0.0000000   0.0000000
 NMagM=    0.0000000   0.0000000   0.0000000   0.0000000   0.0000000   0.0000000   0.0000000   0.0000000   0.0000000   0.0000000

  Atom        61          62          63          64          65          66          67          68          69          70
 IAtWgt=          12          12          12          12          12          12          12          12          12          12
 AtmWgt=  12.0000000  12.0000000  12.0000000  12.0000000  12.0000000  12.0000000  12.0000000  12.0000000  12.0000000  12.0000000
 NucSpn=           0           0           0           0           0           0           0           0           0           0
 AtZEff=   0.0000000   0.0000000   0.0000000   0.0000000   0.0000000   0.0000000   0.0000000   0.0000000   0.0000000   0.0000000
 NQMom=    0.0000000   0.0000000   0.0000000   0.0000000   0.0000000   0.0000000   0.0000000   0.0000000   0.0000000   0.0000000
 NMagM=    0.0000000   0.0000000   0.0000000   0.0000000   0.0000000   0.0000000   0.0000000   0.0000000   0.0000000   0.0000000

  Atom        71          72          73          74          75          76          77          78          79          80
 IAtWgt=          12          12          12          12          12          12          12           1           1           1
 AtmWgt=  12.0000000  12.0000000  12.0000000  12.0000000  12.0000000  12.0000000  12.0000000   1.0078250   1.0078250   1.0078250
 NucSpn=           0           0           0           0           0           0           0           1           1           1
 AtZEff=   0.0000000   0.0000000   0.0000000   0.0000000   0.0000000   0.0000000   0.0000000   0.0000000   0.0000000   0.0000000
 NQMom=    0.0000000   0.0000000   0.0000000   0.0000000   0.0000000   0.0000000   0.0000000   0.0000000   0.0000000   0.0000000
 NMagM=    0.0000000   0.0000000   0.0000000   0.0000000   0.0000000   0.0000000   0.0000000   2.7928460   2.7928460   2.7928460

  Atom        81          82          83          84          85          86          87          88          89          90
 IAtWgt=           1           1           1           1           1           1           1           1           1          16
 AtmWgt=   1.0078250   1.0078250   1.0078250   1.0078250   1.0078250   1.0078250   1.0078250   1.0078250   1.0078250  15.9949146
 NucSpn=           1           1           1           1           1           1           1           1           1           0
 AtZEff=   0.0000000   0.0000000   0.0000000   0.0000000   0.0000000   0.0000000   0.0000000   0.0000000   0.0000000   0.0000000
 NQMom=    0.0000000   0.0000000   0.0000000   0.0000000   0.0000000   0.0000000   0.0000000   0.0000000   0.0000000   0.0000000
 NMagM=    2.7928460   2.7928460   2.7928460   2.7928460   2.7928460   2.7928460   2.7928460   2.7928460   2.7928460   0.0000000

  Atom        91          92          93          94          95          96          97          98          99         100
 IAtWgt=          12          16          12          16          16          12          12           1           1           1
 AtmWgt=  12.0000000  15.9949146  12.0000000  15.9949146  15.9949146  12.0000000  12.0000000   1.0078250   1.0078250   1.0078250
 NucSpn=           0           0           0           0           0           0           0           1           1           1
 AtZEff=   0.0000000   0.0000000   0.0000000   0.0000000   0.0000000   0.0000000   0.0000000   0.0000000   0.0000000   0.0000000
 NQMom=    0.0000000   0.0000000   0.0000000   0.0000000   0.0000000   0.0000000   0.0000000   0.0000000   0.0000000   0.0000000
 NMagM=    0.0000000   0.0000000   0.0000000   0.0000000   0.0000000   0.0000000   0.0000000   2.7928460   2.7928460   2.7928460

  Atom       101         102         103         104         105         106         107         108         109         110
 IAtWgt=           1           1           1           1           1           1           1           1           1           1
 AtmWgt=   1.0078250   1.0078250   1.0078250   1.0078250   1.0078250   1.0078250   1.0078250   1.0078250   1.0078250   1.0078250
 NucSpn=           1           1           1           1           1           1           1           1           1           1
 AtZEff=   0.0000000   0.0000000   0.0000000   0.0000000   0.0000000   0.0000000   0.0000000   0.0000000   0.0000000   0.0000000
 NQMom=    0.0000000   0.0000000   0.0000000   0.0000000   0.0000000   0.0000000   0.0000000   0.0000000   0.0000000   0.0000000
 NMagM=    2.7928460   2.7928460   2.7928460   2.7928460   2.7928460   2.7928460   2.7928460   2.7928460   2.7928460   2.7928460

  Atom       111         112         113         114         115         116         117         118         119         120
 IAtWgt=           1           1           1           1           1           1           1           1           1           1
 AtmWgt=   1.0078250   1.0078250   1.0078250   1.0078250   1.0078250   1.0078250   1.0078250   1.0078250   1.0078250   1.0078250
 NucSpn=           1           1           1           1           1           1           1           1           1           1
 AtZEff=   0.0000000   0.0000000   0.0000000   0.0000000   0.0000000   0.0000000   0.0000000   0.0000000   0.0000000   0.0000000
 NQMom=    0.0000000   0.0000000   0.0000000   0.0000000   0.0000000   0.0000000   0.0000000   0.0000000   0.0000000   0.0000000
 NMagM=    2.7928460   2.7928460   2.7928460   2.7928460   2.7928460   2.7928460   2.7928460   2.7928460   2.7928460   2.7928460

  Atom       121         122         123         124         125         126         127         128         129         130
 IAtWgt=           1           1           1           1           1           1          16           1           1          16
 AtmWgt=   1.0078250   1.0078250   1.0078250   1.0078250   1.0078250   1.0078250  15.9949146   1.0078250   1.0078250  15.9949146
 NucSpn=           1           1           1           1           1           1           0           1           1           0
 AtZEff=   0.0000000   0.0000000   0.0000000   0.0000000   0.0000000   0.0000000   0.0000000   0.0000000   0.0000000   0.0000000
 NQMom=    0.0000000   0.0000000   0.0000000   0.0000000   0.0000000   0.0000000   0.0000000   0.0000000   0.0000000   0.0000000
 NMagM=    2.7928460   2.7928460   2.7928460   2.7928460   2.7928460   2.7928460   0.0000000   2.7928460   2.7928460   0.0000000

  Atom       131         132         133         134         135         136         137         138         139         140
 IAtWgt=          16           1           1           1          16           1          16           1           1          16
 AtmWgt=  15.9949146   1.0078250   1.0078250   1.0078250  15.9949146   1.0078250  15.9949146   1.0078250   1.0078250  15.9949146
 NucSpn=           0           1           1           1           0           1           0           1           1           0
 AtZEff=   0.0000000   0.0000000   0.0000000   0.0000000   0.0000000   0.0000000   0.0000000   0.0000000   0.0000000   0.0000000
 NQMom=    0.0000000   0.0000000   0.0000000   0.0000000   0.0000000   0.0000000   0.0000000   0.0000000   0.0000000   0.0000000
 NMagM=    0.0000000   2.7928460   2.7928460   2.7928460   0.0000000   2.7928460   0.0000000   2.7928460   2.7928460   0.0000000

  Atom       141         142         143         144         145         146         147         148         149         150
 IAtWgt=          16           1           1           1          16          12          12          12          12           1
 AtmWgt=  15.9949146   1.0078250   1.0078250   1.0078250  15.9949146  12.0000000  12.0000000  12.0000000  12.0000000   1.0078250
 NucSpn=           0           1           1           1           0           0           0           0           0           1
 AtZEff=   0.0000000   0.0000000   0.0000000   0.0000000   0.0000000   0.0000000   0.0000000   0.0000000   0.0000000   0.0000000
 NQMom=    0.0000000   0.0000000   0.0000000   0.0000000   0.0000000   0.0000000   0.0000000   0.0000000   0.0000000   0.0000000
 NMagM=    0.0000000   2.7928460   2.7928460   2.7928460   0.0000000   0.0000000   0.0000000   0.0000000   0.0000000   2.7928460

  Atom       151         152         153         154         155         156         157         158         159         160
 IAtWgt=           1           1           1           1           1           1           1           1           1           1
 AtmWgt=   1.0078250   1.0078250   1.0078250   1.0078250   1.0078250   1.0078250   1.0078250   1.0078250   1.0078250   1.0078250
 NucSpn=           1           1           1           1           1           1           1           1           1           1
 AtZEff=   0.0000000   0.0000000   0.0000000   0.0000000   0.0000000   0.0000000   0.0000000   0.0000000   0.0000000   0.0000000
 NQMom=    0.0000000   0.0000000   0.0000000   0.0000000   0.0000000   0.0000000   0.0000000   0.0000000   0.0000000   0.0000000
 NMagM=    2.7928460   2.7928460   2.7928460   2.7928460   2.7928460   2.7928460   2.7928460   2.7928460   2.7928460   2.7928460

  Atom       161         162         163         164         165         166         167         168         169         170
 IAtWgt=           1          12           1           1           1          12           1           1           1          12
 AtmWgt=   1.0078250  12.0000000   1.0078250   1.0078250   1.0078250  12.0000000   1.0078250   1.0078250   1.0078250  12.0000000
 NucSpn=           1           0           1           1           1           0           1           1           1           0
 AtZEff=   0.0000000   0.0000000   0.0000000   0.0000000   0.0000000   0.0000000   0.0000000   0.0000000   0.0000000   0.0000000
 NQMom=    0.0000000   0.0000000   0.0000000   0.0000000   0.0000000   0.0000000   0.0000000   0.0000000   0.0000000   0.0000000
 NMagM=    2.7928460   0.0000000   2.7928460   2.7928460   2.7928460   0.0000000   2.7928460   2.7928460   2.7928460   0.0000000

  Atom       171         172         173         174         175         176         177
 IAtWgt=           1           1           1          12           1           1           1
 AtmWgt=   1.0078250   1.0078250   1.0078250  12.0000000   1.0078250   1.0078250   1.0078250
 NucSpn=           1           1           1           0           1           1           1
 AtZEff=   0.0000000   0.0000000   0.0000000   0.0000000   0.0000000   0.0000000   0.0000000
 NQMom=    0.0000000   0.0000000   0.0000000   0.0000000   0.0000000   0.0000000   0.0000000
 NMagM=    2.7928460   2.7928460   2.7928460   0.0000000   2.7928460   2.7928460   2.7928460
 Leave Link  101 at Thu Aug  7 22:53:16 2014, MaxMem= 2147483648 cpu:       4.8
 (Enter /opt/g09/l103.exe)

 GradGradGradGradGradGradGradGradGradGradGradGradGradGradGradGradGradGrad
 Berny optimization.
 Initialization pass.
                           ----------------------------
                           !    Initial Parameters    !
                           ! (Angstroms and Degrees)  !
 --------------------------                            --------------------------
 ! Name  Definition              Value          Derivative Info.                !
 --------------------------------------------------------------------------------
 ! R1    R(1,2)                  1.5282         estimate D2E/DX2                !
 ! R2    R(1,5)                  1.5307         estimate D2E/DX2                !
 ! R3    R(1,6)                  1.5319         estimate D2E/DX2                !
 ! R4    R(1,9)                  1.5312         estimate D2E/DX2                !
 ! R5    R(2,3)                  1.4102         estimate D2E/DX2                !
 ! R6    R(2,18)                 1.3878         estimate D2E/DX2                !
 ! R7    R(3,4)                  1.4616         estimate D2E/DX2                !
 ! R8    R(3,21)                 1.3998         estimate D2E/DX2                !
 ! R9    R(4,5)                  1.4093         estimate D2E/DX2                !
 ! R10   R(4,14)                 1.3998         estimate D2E/DX2                !
 ! R11   R(5,17)                 1.387          estimate D2E/DX2                !
 ! R12   R(6,7)                  1.4117         estimate D2E/DX2                !
 ! R13   R(6,10)                 1.3841         estimate D2E/DX2                !
 ! R14   R(7,8)                  1.4592         estimate D2E/DX2                !
 ! R15   R(7,13)                 1.3983         estimate D2E/DX2                !
 ! R16   R(8,9)                  1.4127         estimate D2E/DX2                !
 ! R17   R(8,22)                 1.3977         estimate D2E/DX2                !
 ! R18   R(9,25)                 1.3837         estimate D2E/DX2                !
 ! R19   R(10,11)                1.4097         estimate D2E/DX2                !
 ! R20   R(10,89)                1.0897         estimate D2E/DX2                !
 ! R21   R(11,12)                1.4087         estimate D2E/DX2                !
 ! R22   R(11,26)                1.4125         estimate D2E/DX2                !
 ! R23   R(12,13)                1.3933         estimate D2E/DX2                !
 ! R24   R(12,87)                1.0896         estimate D2E/DX2                !
 ! R25   R(13,86)                1.0911         estimate D2E/DX2                !
 ! R26   R(14,15)                1.3931         estimate D2E/DX2                !
 ! R27   R(14,82)                1.091          estimate D2E/DX2                !
 ! R28   R(15,16)                1.4068         estimate D2E/DX2                !
 ! R29   R(15,83)                1.0891         estimate D2E/DX2                !
 ! R30   R(16,17)                1.4054         estimate D2E/DX2                !
 ! R31   R(16,27)                1.4249         estimate D2E/DX2                !
 ! R32   R(17,88)                1.0902         estimate D2E/DX2                !
 ! R33   R(18,19)                1.4046         estimate D2E/DX2                !
 ! R34   R(18,79)                1.0904         estimate D2E/DX2                !
 ! R35   R(19,20)                1.4059         estimate D2E/DX2                !
 ! R36   R(19,28)                1.4265         estimate D2E/DX2                !
 ! R37   R(20,21)                1.3928         estimate D2E/DX2                !
 ! R38   R(20,80)                1.0892         estimate D2E/DX2                !
 ! R39   R(21,81)                1.0908         estimate D2E/DX2                !
 ! R40   R(22,23)                1.3944         estimate D2E/DX2                !
 ! R41   R(22,84)                1.091          estimate D2E/DX2                !
 ! R42   R(23,24)                1.4076         estimate D2E/DX2                !
 ! R43   R(23,85)                1.0898         estimate D2E/DX2                !
 ! R44   R(24,25)                1.4094         estimate D2E/DX2                !
 ! R45   R(24,29)                1.4165         estimate D2E/DX2                !
 ! R46   R(25,78)                1.0898         estimate D2E/DX2                !
 ! R47   R(26,34)                1.4146         estimate D2E/DX2                !
 ! R48   R(26,35)                1.4192         estimate D2E/DX2                !
 ! R49   R(27,36)                1.4053         estimate D2E/DX2                !
 ! R50   R(27,37)                1.4219         estimate D2E/DX2                !
 ! R51   R(28,31)                1.4197         estimate D2E/DX2                !
 ! R52   R(28,33)                1.4051         estimate D2E/DX2                !
 ! R53   R(29,30)                1.4183         estimate D2E/DX2                !
 ! R54   R(29,32)                1.4182         estimate D2E/DX2                !
 ! R55   R(30,73)                1.4223         estimate D2E/DX2                !
 ! R56   R(30,77)                1.4122         estimate D2E/DX2                !
 ! R57   R(31,58)                1.4143         estimate D2E/DX2                !
 ! R58   R(31,62)                1.4129         estimate D2E/DX2                !
 ! R59   R(32,68)                1.4072         estimate D2E/DX2                !
 ! R60   R(32,72)                1.3996         estimate D2E/DX2                !
 ! R61   R(33,63)                1.4044         estimate D2E/DX2                !
 ! R62   R(33,67)                1.4098         estimate D2E/DX2                !
 ! R63   R(34,43)                1.4002         estimate D2E/DX2                !
 ! R64   R(34,47)                1.4076         estimate D2E/DX2                !
 ! R65   R(35,48)                1.4132         estimate D2E/DX2                !
 ! R66   R(35,52)                1.4145         estimate D2E/DX2                !
 ! R67   R(36,38)                1.4034         estimate D2E/DX2                !
 ! R68   R(36,42)                1.411          estimate D2E/DX2                !
 ! R69   R(37,53)                1.4116         estimate D2E/DX2                !
 ! R70   R(37,57)                1.4135         estimate D2E/DX2                !
 ! R71   R(38,39)                1.3979         estimate D2E/DX2                !
 ! R72   R(38,103)               1.0894         estimate D2E/DX2                !
 ! R73   R(39,40)                1.398          estimate D2E/DX2                !
 ! R74   R(39,102)               1.0884         estimate D2E/DX2                !
 ! R75   R(40,41)                1.4015         estimate D2E/DX2                !
 ! R76   R(40,94)                1.3759         estimate D2E/DX2                !
 ! R77   R(41,42)                1.3883         estimate D2E/DX2                !
 ! R78   R(41,98)                1.09           estimate D2E/DX2                !
 ! R79   R(42,99)                1.0889         estimate D2E/DX2                !
 ! R80   R(43,44)                1.3981         estimate D2E/DX2                !
 ! R81   R(43,100)               1.0896         estimate D2E/DX2                !
 ! R82   R(44,45)                1.3983         estimate D2E/DX2                !
 ! R83   R(44,101)               1.0882         estimate D2E/DX2                !
 ! R84   R(45,46)                1.4025         estimate D2E/DX2                !
 ! R85   R(45,95)                1.3742         estimate D2E/DX2                !
 ! R86   R(46,47)                1.3862         estimate D2E/DX2                !
 ! R87   R(46,104)               1.0895         estimate D2E/DX2                !
 ! R88   R(47,105)               1.0889         estimate D2E/DX2                !
 ! R89   R(48,49)                1.4018         estimate D2E/DX2                !
 ! R90   R(48,145)               1.3628         estimate D2E/DX2                !
 ! R91   R(49,50)                1.3942         estimate D2E/DX2                !
 ! R92   R(49,144)               1.0871         estimate D2E/DX2                !
 ! R93   R(50,51)                1.3936         estimate D2E/DX2                !
 ! R94   R(50,143)               1.0901         estimate D2E/DX2                !
 ! R95   R(51,52)                1.4022         estimate D2E/DX2                !
 ! R96   R(51,142)               1.0871         estimate D2E/DX2                !
 ! R97   R(52,141)               1.3602         estimate D2E/DX2                !
 ! R98   R(53,54)                1.4024         estimate D2E/DX2                !
 ! R99   R(53,137)               1.3638         estimate D2E/DX2                !
 ! R100  R(54,55)                1.3937         estimate D2E/DX2                !
 ! R101  R(54,136)               1.0868         estimate D2E/DX2                !
 ! R102  R(55,56)                1.3932         estimate D2E/DX2                !
 ! R103  R(55,138)               1.0901         estimate D2E/DX2                !
 ! R104  R(56,57)                1.4024         estimate D2E/DX2                !
 ! R105  R(56,139)               1.0871         estimate D2E/DX2                !
 ! R106  R(57,140)               1.3613         estimate D2E/DX2                !
 ! R107  R(58,59)                1.4026         estimate D2E/DX2                !
 ! R108  R(58,130)               1.3607         estimate D2E/DX2                !
 ! R109  R(59,60)                1.3933         estimate D2E/DX2                !
 ! R110  R(59,129)               1.0872         estimate D2E/DX2                !
 ! R111  R(60,61)                1.3939         estimate D2E/DX2                !
 ! R112  R(60,128)               1.09           estimate D2E/DX2                !
 ! R113  R(61,62)                1.4018         estimate D2E/DX2                !
 ! R114  R(61,126)               1.0869         estimate D2E/DX2                !
 ! R115  R(62,127)               1.3641         estimate D2E/DX2                !
 ! R116  R(63,64)                1.3978         estimate D2E/DX2                !
 ! R117  R(63,111)               1.0889         estimate D2E/DX2                !
 ! R118  R(64,65)                1.3983         estimate D2E/DX2                !
 ! R119  R(64,110)               1.0884         estimate D2E/DX2                !
 ! R120  R(65,66)                1.4013         estimate D2E/DX2                !
 ! R121  R(65,92)                1.3763         estimate D2E/DX2                !
 ! R122  R(66,67)                1.3883         estimate D2E/DX2                !
 ! R123  R(66,112)               1.09           estimate D2E/DX2                !
 ! R124  R(67,113)               1.0895         estimate D2E/DX2                !
 ! R125  R(68,69)                1.3869         estimate D2E/DX2                !
 ! R126  R(68,109)               1.0893         estimate D2E/DX2                !
 ! R127  R(69,70)                1.4018         estimate D2E/DX2                !
 ! R128  R(69,108)               1.0895         estimate D2E/DX2                !
 ! R129  R(70,71)                1.3991         estimate D2E/DX2                !
 ! R130  R(70,90)                1.374          estimate D2E/DX2                !
 ! R131  R(71,72)                1.3971         estimate D2E/DX2                !
 ! R132  R(71,107)               1.088          estimate D2E/DX2                !
 ! R133  R(72,106)               1.0894         estimate D2E/DX2                !
 ! R134  R(73,74)                1.399          estimate D2E/DX2                !
 ! R135  R(73,131)               1.3609         estimate D2E/DX2                !
 ! R136  R(74,75)                1.3971         estimate D2E/DX2                !
 ! R137  R(74,132)               1.0872         estimate D2E/DX2                !
 ! R138  R(75,76)                1.39           estimate D2E/DX2                !
 ! R139  R(75,133)               1.0899         estimate D2E/DX2                !
 ! R140  R(76,77)                1.3996         estimate D2E/DX2                !
 ! R141  R(76,134)               1.0888         estimate D2E/DX2                !
 ! R142  R(77,135)               1.3757         estimate D2E/DX2                !
 ! R143  R(90,91)                1.4219         estimate D2E/DX2                !
 ! R144  R(91,123)               1.1022         estimate D2E/DX2                !
 ! R145  R(91,124)               1.1022         estimate D2E/DX2                !
 ! R146  R(91,125)               1.0949         estimate D2E/DX2                !
 ! R147  R(92,93)                1.4194         estimate D2E/DX2                !
 ! R148  R(93,114)               1.1029         estimate D2E/DX2                !
 ! R149  R(93,115)               1.1031         estimate D2E/DX2                !
 ! R150  R(93,116)               1.0952         estimate D2E/DX2                !
 ! R151  R(94,97)                1.4196         estimate D2E/DX2                !
 ! R152  R(95,96)                1.4211         estimate D2E/DX2                !
 ! R153  R(96,117)               1.1023         estimate D2E/DX2                !
 ! R154  R(96,118)               1.1021         estimate D2E/DX2                !
 ! R155  R(96,119)               1.095          estimate D2E/DX2                !
 ! R156  R(97,120)               1.095          estimate D2E/DX2                !
 ! R157  R(97,121)               1.103          estimate D2E/DX2                !
 ! R158  R(97,122)               1.1029         estimate D2E/DX2                !
 ! R159  R(127,170)              1.4243         estimate D2E/DX2                !
 ! R160  R(130,148)              1.4256         estimate D2E/DX2                !
 ! R161  R(131,149)              1.425          estimate D2E/DX2                !
 ! R162  R(135,174)              1.433          estimate D2E/DX2                !
 ! R163  R(137,166)              1.4245         estimate D2E/DX2                !
 ! R164  R(140,146)              1.4243         estimate D2E/DX2                !
 ! R165  R(141,147)              1.4252         estimate D2E/DX2                !
 ! R166  R(145,162)              1.4232         estimate D2E/DX2                !
 ! R167  R(146,150)              1.0944         estimate D2E/DX2                !
 ! R168  R(146,151)              1.1013         estimate D2E/DX2                !
 ! R169  R(146,152)              1.1007         estimate D2E/DX2                !
 ! R170  R(147,159)              1.0945         estimate D2E/DX2                !
 ! R171  R(147,160)              1.1014         estimate D2E/DX2                !
 ! R172  R(147,161)              1.1018         estimate D2E/DX2                !
 ! R173  R(148,156)              1.1015         estimate D2E/DX2                !
 ! R174  R(148,157)              1.1005         estimate D2E/DX2                !
 ! R175  R(148,158)              1.0946         estimate D2E/DX2                !
 ! R176  R(149,153)              1.1012         estimate D2E/DX2                !
 ! R177  R(149,154)              1.1019         estimate D2E/DX2                !
 ! R178  R(149,155)              1.0942         estimate D2E/DX2                !
 ! R179  R(162,163)              1.0944         estimate D2E/DX2                !
 ! R180  R(162,164)              1.1018         estimate D2E/DX2                !
 ! R181  R(162,165)              1.1014         estimate D2E/DX2                !
 ! R182  R(166,167)              1.0945         estimate D2E/DX2                !
 ! R183  R(166,168)              1.1012         estimate D2E/DX2                !
 ! R184  R(166,169)              1.1012         estimate D2E/DX2                !
 ! R185  R(170,171)              1.0948         estimate D2E/DX2                !
 ! R186  R(170,172)              1.1012         estimate D2E/DX2                !
 ! R187  R(170,173)              1.1013         estimate D2E/DX2                !
 ! R188  R(174,175)              1.102          estimate D2E/DX2                !
 ! R189  R(174,176)              1.0952         estimate D2E/DX2                !
 ! R190  R(174,177)              1.0983         estimate D2E/DX2                !
 ! A1    A(2,1,5)              101.3235         estimate D2E/DX2                !
 ! A2    A(2,1,6)              113.267          estimate D2E/DX2                !
 ! A3    A(2,1,9)              115.1556         estimate D2E/DX2                !
 ! A4    A(5,1,6)              113.7296         estimate D2E/DX2                !
 ! A5    A(5,1,9)              112.5101         estimate D2E/DX2                !
 ! A6    A(6,1,9)              101.4206         estimate D2E/DX2                !
 ! A7    A(1,2,3)              110.6147         estimate D2E/DX2                !
 ! A8    A(1,2,18)             128.286          estimate D2E/DX2                !
 ! A9    A(3,2,18)             121.0441         estimate D2E/DX2                !
 ! A10   A(2,3,4)              108.7013         estimate D2E/DX2                !
 ! A11   A(2,3,21)             119.7469         estimate D2E/DX2                !
 ! A12   A(4,3,21)             131.5409         estimate D2E/DX2                !
 ! A13   A(3,4,5)              108.6624         estimate D2E/DX2                !
 ! A14   A(3,4,14)             131.7075         estimate D2E/DX2                !
 ! A15   A(5,4,14)             119.6223         estimate D2E/DX2                !
 ! A16   A(1,5,4)              110.6109         estimate D2E/DX2                !
 ! A17   A(1,5,17)             128.191          estimate D2E/DX2                !
 ! A18   A(4,5,17)             121.1649         estimate D2E/DX2                !
 ! A19   A(1,6,7)              110.4586         estimate D2E/DX2                !
 ! A20   A(1,6,10)             127.9064         estimate D2E/DX2                !
 ! A21   A(7,6,10)             121.609          estimate D2E/DX2                !
 ! A22   A(6,7,8)              108.8114         estimate D2E/DX2                !
 ! A23   A(6,7,13)             119.191          estimate D2E/DX2                !
 ! A24   A(8,7,13)             131.978          estimate D2E/DX2                !
 ! A25   A(7,8,9)              108.8134         estimate D2E/DX2                !
 ! A26   A(7,8,22)             132.0006         estimate D2E/DX2                !
 ! A27   A(9,8,22)             119.1815         estimate D2E/DX2                !
 ! A28   A(1,9,8)              110.4052         estimate D2E/DX2                !
 ! A29   A(1,9,25)             127.9903         estimate D2E/DX2                !
 ! A30   A(8,9,25)             121.5602         estimate D2E/DX2                !
 ! A31   A(6,10,11)            119.2039         estimate D2E/DX2                !
 ! A32   A(6,10,89)            120.9517         estimate D2E/DX2                !
 ! A33   A(11,10,89)           119.8216         estimate D2E/DX2                !
 ! A34   A(10,11,12)           119.2763         estimate D2E/DX2                !
 ! A35   A(10,11,26)           120.9294         estimate D2E/DX2                !
 ! A36   A(12,11,26)           119.7756         estimate D2E/DX2                !
 ! A37   A(11,12,13)           121.1701         estimate D2E/DX2                !
 ! A38   A(11,12,87)           118.7351         estimate D2E/DX2                !
 ! A39   A(13,12,87)           120.0946         estimate D2E/DX2                !
 ! A40   A(7,13,12)            119.5481         estimate D2E/DX2                !
 ! A41   A(7,13,86)            120.8034         estimate D2E/DX2                !
 ! A42   A(12,13,86)           119.6479         estimate D2E/DX2                !
 ! A43   A(4,14,15)            119.3894         estimate D2E/DX2                !
 ! A44   A(4,14,82)            120.7737         estimate D2E/DX2                !
 ! A45   A(15,14,82)           119.8347         estimate D2E/DX2                !
 ! A46   A(14,15,16)           120.8639         estimate D2E/DX2                !
 ! A47   A(14,15,83)           120.402          estimate D2E/DX2                !
 ! A48   A(16,15,83)           118.7283         estimate D2E/DX2                !
 ! A49   A(15,16,17)           119.7665         estimate D2E/DX2                !
 ! A50   A(15,16,27)           120.8595         estimate D2E/DX2                !
 ! A51   A(17,16,27)           119.3698         estimate D2E/DX2                !
 ! A52   A(5,17,16)            119.1825         estimate D2E/DX2                !
 ! A53   A(5,17,88)            121.2699         estimate D2E/DX2                !
 ! A54   A(16,17,88)           119.5239         estimate D2E/DX2                !
 ! A55   A(2,18,19)            119.134          estimate D2E/DX2                !
 ! A56   A(2,18,79)            121.3204         estimate D2E/DX2                !
 ! A57   A(19,18,79)           119.5159         estimate D2E/DX2                !
 ! A58   A(18,19,20)           119.8952         estimate D2E/DX2                !
 ! A59   A(18,19,28)           119.7135         estimate D2E/DX2                !
 ! A60   A(20,19,28)           120.3913         estimate D2E/DX2                !
 ! A61   A(19,20,21)           120.8713         estimate D2E/DX2                !
 ! A62   A(19,20,80)           118.566          estimate D2E/DX2                !
 ! A63   A(21,20,80)           120.557          estimate D2E/DX2                !
 ! A64   A(3,21,20)            119.2936         estimate D2E/DX2                !
 ! A65   A(3,21,81)            120.8095         estimate D2E/DX2                !
 ! A66   A(20,21,81)           119.896          estimate D2E/DX2                !
 ! A67   A(8,22,23)            119.5466         estimate D2E/DX2                !
 ! A68   A(8,22,84)            120.8412         estimate D2E/DX2                !
 ! A69   A(23,22,84)           119.6108         estimate D2E/DX2                !
 ! A70   A(22,23,24)           121.1469         estimate D2E/DX2                !
 ! A71   A(22,23,85)           119.8757         estimate D2E/DX2                !
 ! A72   A(24,23,85)           118.9774         estimate D2E/DX2                !
 ! A73   A(23,24,25)           119.3017         estimate D2E/DX2                !
 ! A74   A(23,24,29)           119.9365         estimate D2E/DX2                !
 ! A75   A(25,24,29)           120.7548         estimate D2E/DX2                !
 ! A76   A(9,25,24)            119.2398         estimate D2E/DX2                !
 ! A77   A(9,25,78)            120.993          estimate D2E/DX2                !
 ! A78   A(24,25,78)           119.7506         estimate D2E/DX2                !
 ! A79   A(11,26,34)           121.9843         estimate D2E/DX2                !
 ! A80   A(11,26,35)           119.0109         estimate D2E/DX2                !
 ! A81   A(34,26,35)           118.965          estimate D2E/DX2                !
 ! A82   A(16,27,36)           122.0756         estimate D2E/DX2                !
 ! A83   A(16,27,37)           117.3337         estimate D2E/DX2                !
 ! A84   A(36,27,37)           120.4371         estimate D2E/DX2                !
 ! A85   A(19,28,31)           117.9            estimate D2E/DX2                !
 ! A86   A(19,28,33)           121.308          estimate D2E/DX2                !
 ! A87   A(31,28,33)           120.7901         estimate D2E/DX2                !
 ! A88   A(24,29,30)           119.6546         estimate D2E/DX2                !
 ! A89   A(24,29,32)           121.1455         estimate D2E/DX2                !
 ! A90   A(30,29,32)           119.1253         estimate D2E/DX2                !
 ! A91   A(29,30,73)           119.9404         estimate D2E/DX2                !
 ! A92   A(29,30,77)           121.7673         estimate D2E/DX2                !
 ! A93   A(73,30,77)           118.2128         estimate D2E/DX2                !
 ! A94   A(28,31,58)           119.9789         estimate D2E/DX2                !
 ! A95   A(28,31,62)           121.2718         estimate D2E/DX2                !
 ! A96   A(58,31,62)           118.7489         estimate D2E/DX2                !
 ! A97   A(29,32,68)           120.743          estimate D2E/DX2                !
 ! A98   A(29,32,72)           121.0325         estimate D2E/DX2                !
 ! A99   A(68,32,72)           118.2028         estimate D2E/DX2                !
 ! A100  A(28,33,63)           121.3896         estimate D2E/DX2                !
 ! A101  A(28,33,67)           120.8784         estimate D2E/DX2                !
 ! A102  A(63,33,67)           117.7259         estimate D2E/DX2                !
 ! A103  A(26,34,43)           120.8041         estimate D2E/DX2                !
 ! A104  A(26,34,47)           121.0334         estimate D2E/DX2                !
 ! A105  A(43,34,47)           118.1356         estimate D2E/DX2                !
 ! A106  A(26,35,48)           120.6967         estimate D2E/DX2                !
 ! A107  A(26,35,52)           120.4381         estimate D2E/DX2                !
 ! A108  A(48,35,52)           118.8606         estimate D2E/DX2                !
 ! A109  A(27,36,38)           121.1918         estimate D2E/DX2                !
 ! A110  A(27,36,42)           121.1262         estimate D2E/DX2                !
 ! A111  A(38,36,42)           117.6616         estimate D2E/DX2                !
 ! A112  A(27,37,53)           121.2961         estimate D2E/DX2                !
 ! A113  A(27,37,57)           119.8296         estimate D2E/DX2                !
 ! A114  A(53,37,57)           118.8742         estimate D2E/DX2                !
 ! A115  A(36,38,39)           121.4127         estimate D2E/DX2                !
 ! A116  A(36,38,103)          119.546          estimate D2E/DX2                !
 ! A117  A(39,38,103)          119.0412         estimate D2E/DX2                !
 ! A118  A(38,39,40)           120.2421         estimate D2E/DX2                !
 ! A119  A(38,39,102)          118.6824         estimate D2E/DX2                !
 ! A120  A(40,39,102)          121.073          estimate D2E/DX2                !
 ! A121  A(39,40,41)           118.8365         estimate D2E/DX2                !
 ! A122  A(39,40,94)           124.9968         estimate D2E/DX2                !
 ! A123  A(41,40,94)           116.1664         estimate D2E/DX2                !
 ! A124  A(40,41,42)           120.841          estimate D2E/DX2                !
 ! A125  A(40,41,98)           118.7616         estimate D2E/DX2                !
 ! A126  A(42,41,98)           120.3949         estimate D2E/DX2                !
 ! A127  A(36,42,41)           120.9982         estimate D2E/DX2                !
 ! A128  A(36,42,99)           119.6965         estimate D2E/DX2                !
 ! A129  A(41,42,99)           119.3053         estimate D2E/DX2                !
 ! A130  A(34,43,44)           121.3197         estimate D2E/DX2                !
 ! A131  A(34,43,100)          119.4049         estimate D2E/DX2                !
 ! A132  A(44,43,100)          119.275          estimate D2E/DX2                !
 ! A133  A(43,44,45)           119.9451         estimate D2E/DX2                !
 ! A134  A(43,44,101)          118.9472         estimate D2E/DX2                !
 ! A135  A(45,44,101)          121.1036         estimate D2E/DX2                !
 ! A136  A(44,45,46)           119.0439         estimate D2E/DX2                !
 ! A137  A(44,45,95)           124.9472         estimate D2E/DX2                !
 ! A138  A(46,45,95)           116.0085         estimate D2E/DX2                !
 ! A139  A(45,46,47)           120.789          estimate D2E/DX2                !
 ! A140  A(45,46,104)          118.905          estimate D2E/DX2                !
 ! A141  A(47,46,104)          120.2957         estimate D2E/DX2                !
 ! A142  A(34,47,46)           120.7562         estimate D2E/DX2                !
 ! A143  A(34,47,105)          119.7251         estimate D2E/DX2                !
 ! A144  A(46,47,105)          119.5176         estimate D2E/DX2                !
 ! A145  A(35,48,49)           120.5702         estimate D2E/DX2                !
 ! A146  A(35,48,145)          115.3372         estimate D2E/DX2                !
 ! A147  A(49,48,145)          124.0917         estimate D2E/DX2                !
 ! A148  A(48,49,50)           119.2661         estimate D2E/DX2                !
 ! A149  A(48,49,144)          120.7707         estimate D2E/DX2                !
 ! A150  A(50,49,144)          119.9551         estimate D2E/DX2                !
 ! A151  A(49,50,51)           121.4933         estimate D2E/DX2                !
 ! A152  A(49,50,143)          119.2353         estimate D2E/DX2                !
 ! A153  A(51,50,143)          119.2714         estimate D2E/DX2                !
 ! A154  A(50,51,52)           119.335          estimate D2E/DX2                !
 ! A155  A(50,51,142)          119.9913         estimate D2E/DX2                !
 ! A156  A(52,51,142)          120.6623         estimate D2E/DX2                !
 ! A157  A(35,52,51)           120.4598         estimate D2E/DX2                !
 ! A158  A(35,52,141)          115.3539         estimate D2E/DX2                !
 ! A159  A(51,52,141)          124.1829         estimate D2E/DX2                !
 ! A160  A(37,53,54)           120.4796         estimate D2E/DX2                !
 ! A161  A(37,53,137)          115.6313         estimate D2E/DX2                !
 ! A162  A(54,53,137)          123.8877         estimate D2E/DX2                !
 ! A163  A(53,54,55)           119.2811         estimate D2E/DX2                !
 ! A164  A(53,54,136)          120.8949         estimate D2E/DX2                !
 ! A165  A(55,54,136)          119.8177         estimate D2E/DX2                !
 ! A166  A(54,55,56)           121.632          estimate D2E/DX2                !
 ! A167  A(54,55,138)          119.1727         estimate D2E/DX2                !
 ! A168  A(56,55,138)          119.1953         estimate D2E/DX2                !
 ! A169  A(55,56,57)           119.0606         estimate D2E/DX2                !
 ! A170  A(55,56,139)          119.9841         estimate D2E/DX2                !
 ! A171  A(57,56,139)          120.9526         estimate D2E/DX2                !
 ! A172  A(37,57,56)           120.6605         estimate D2E/DX2                !
 ! A173  A(37,57,140)          115.2342         estimate D2E/DX2                !
 ! A174  A(56,57,140)          124.1022         estimate D2E/DX2                !
 ! A175  A(31,58,59)           120.6274         estimate D2E/DX2                !
 ! A176  A(31,58,130)          115.3342         estimate D2E/DX2                !
 ! A177  A(59,58,130)          124.0336         estimate D2E/DX2                !
 ! A178  A(58,59,60)           119.1933         estimate D2E/DX2                !
 ! A179  A(58,59,129)          120.8477         estimate D2E/DX2                !
 ! A180  A(60,59,129)          119.9489         estimate D2E/DX2                !
 ! A181  A(59,60,61)           121.5424         estimate D2E/DX2                !
 ! A182  A(59,60,128)          119.243          estimate D2E/DX2                !
 ! A183  A(61,60,128)          119.2145         estimate D2E/DX2                !
 ! A184  A(60,61,62)           119.2821         estimate D2E/DX2                !
 ! A185  A(60,61,126)          119.848          estimate D2E/DX2                !
 ! A186  A(62,61,126)          120.8646         estimate D2E/DX2                !
 ! A187  A(31,62,61)           120.5962         estimate D2E/DX2                !
 ! A188  A(31,62,127)          115.5342         estimate D2E/DX2                !
 ! A189  A(61,62,127)          123.8685         estimate D2E/DX2                !
 ! A190  A(33,63,64)           121.2712         estimate D2E/DX2                !
 ! A191  A(33,63,111)          119.737          estimate D2E/DX2                !
 ! A192  A(64,63,111)          118.9918         estimate D2E/DX2                !
 ! A193  A(63,64,65)           120.3058         estimate D2E/DX2                !
 ! A194  A(63,64,110)          118.598          estimate D2E/DX2                !
 ! A195  A(65,64,110)          121.0938         estimate D2E/DX2                !
 ! A196  A(64,65,66)           118.8651         estimate D2E/DX2                !
 ! A197  A(64,65,92)           124.9629         estimate D2E/DX2                !
 ! A198  A(66,65,92)           116.172          estimate D2E/DX2                !
 ! A199  A(65,66,67)           120.7504         estimate D2E/DX2                !
 ! A200  A(65,66,112)          118.7577         estimate D2E/DX2                !
 ! A201  A(67,66,112)          120.4882         estimate D2E/DX2                !
 ! A202  A(33,67,66)           121.0752         estimate D2E/DX2                !
 ! A203  A(33,67,113)          119.5253         estimate D2E/DX2                !
 ! A204  A(66,67,113)          119.3993         estimate D2E/DX2                !
 ! A205  A(32,68,69)           120.8385         estimate D2E/DX2                !
 ! A206  A(32,68,109)          119.8609         estimate D2E/DX2                !
 ! A207  A(69,68,109)          119.3005         estimate D2E/DX2                !
 ! A208  A(68,69,70)           120.6088         estimate D2E/DX2                !
 ! A209  A(68,69,108)          120.1204         estimate D2E/DX2                !
 ! A210  A(70,69,108)          119.2602         estimate D2E/DX2                !
 ! A211  A(69,70,71)           119.1314         estimate D2E/DX2                !
 ! A212  A(69,70,90)           116.0128         estimate D2E/DX2                !
 ! A213  A(71,70,90)           124.8557         estimate D2E/DX2                !
 ! A214  A(70,71,72)           119.9904         estimate D2E/DX2                !
 ! A215  A(70,71,107)          121.1631         estimate D2E/DX2                !
 ! A216  A(72,71,107)          118.8446         estimate D2E/DX2                !
 ! A217  A(32,72,71)           121.2229         estimate D2E/DX2                !
 ! A218  A(32,72,106)          119.4618         estimate D2E/DX2                !
 ! A219  A(71,72,106)          119.3128         estimate D2E/DX2                !
 ! A220  A(30,73,74)           120.5934         estimate D2E/DX2                !
 ! A221  A(30,73,131)          115.3978         estimate D2E/DX2                !
 ! A222  A(74,73,131)          123.9891         estimate D2E/DX2                !
 ! A223  A(73,74,75)           119.7534         estimate D2E/DX2                !
 ! A224  A(73,74,132)          120.3385         estimate D2E/DX2                !
 ! A225  A(75,74,132)          119.88           estimate D2E/DX2                !
 ! A226  A(74,75,76)           120.6856         estimate D2E/DX2                !
 ! A227  A(74,75,133)          119.4062         estimate D2E/DX2                !
 ! A228  A(76,75,133)          119.9081         estimate D2E/DX2                !
 ! A229  A(75,76,77)           119.9677         estimate D2E/DX2                !
 ! A230  A(75,76,134)          121.7717         estimate D2E/DX2                !
 ! A231  A(77,76,134)          118.2587         estimate D2E/DX2                !
 ! A232  A(30,77,76)           120.7594         estimate D2E/DX2                !
 ! A233  A(30,77,135)          122.1327         estimate D2E/DX2                !
 ! A234  A(76,77,135)          116.9658         estimate D2E/DX2                !
 ! A235  A(70,90,91)           117.144          estimate D2E/DX2                !
 ! A236  A(90,91,123)          111.519          estimate D2E/DX2                !
 ! A237  A(90,91,124)          111.5645         estimate D2E/DX2                !
 ! A238  A(90,91,125)          106.0601         estimate D2E/DX2                !
 ! A239  A(123,91,124)         109.0618         estimate D2E/DX2                !
 ! A240  A(123,91,125)         109.2917         estimate D2E/DX2                !
 ! A241  A(124,91,125)         109.2704         estimate D2E/DX2                !
 ! A242  A(65,92,93)           117.0848         estimate D2E/DX2                !
 ! A243  A(92,93,114)          111.7264         estimate D2E/DX2                !
 ! A244  A(92,93,115)          111.6513         estimate D2E/DX2                !
 ! A245  A(92,93,116)          106.0602         estimate D2E/DX2                !
 ! A246  A(114,93,115)         108.8835         estimate D2E/DX2                !
 ! A247  A(114,93,116)         109.2155         estimate D2E/DX2                !
 ! A248  A(115,93,116)         109.2292         estimate D2E/DX2                !
 ! A249  A(40,94,97)           117.0668         estimate D2E/DX2                !
 ! A250  A(45,95,96)           117.1911         estimate D2E/DX2                !
 ! A251  A(95,96,117)          111.5793         estimate D2E/DX2                !
 ! A252  A(95,96,118)          111.5838         estimate D2E/DX2                !
 ! A253  A(95,96,119)          106.0344         estimate D2E/DX2                !
 ! A254  A(117,96,118)         109.0424         estimate D2E/DX2                !
 ! A255  A(117,96,119)         109.2569         estimate D2E/DX2                !
 ! A256  A(118,96,119)         109.2687         estimate D2E/DX2                !
 ! A257  A(94,97,120)          106.0737         estimate D2E/DX2                !
 ! A258  A(94,97,121)          111.6787         estimate D2E/DX2                !
 ! A259  A(94,97,122)          111.6492         estimate D2E/DX2                !
 ! A260  A(120,97,121)         109.2202         estimate D2E/DX2                !
 ! A261  A(120,97,122)         109.2095         estimate D2E/DX2                !
 ! A262  A(121,97,122)         108.9334         estimate D2E/DX2                !
 ! A263  A(62,127,170)         117.5097         estimate D2E/DX2                !
 ! A264  A(58,130,148)         117.9991         estimate D2E/DX2                !
 ! A265  A(73,131,149)         118.0599         estimate D2E/DX2                !
 ! A266  A(77,135,174)         116.4328         estimate D2E/DX2                !
 ! A267  A(53,137,166)         117.5001         estimate D2E/DX2                !
 ! A268  A(57,140,146)         117.9665         estimate D2E/DX2                !
 ! A269  A(52,141,147)         118.0621         estimate D2E/DX2                !
 ! A270  A(48,145,162)         117.7982         estimate D2E/DX2                !
 ! A271  A(140,146,150)        105.6441         estimate D2E/DX2                !
 ! A272  A(140,146,151)        111.4125         estimate D2E/DX2                !
 ! A273  A(140,146,152)        111.6879         estimate D2E/DX2                !
 ! A274  A(150,146,151)        109.4769         estimate D2E/DX2                !
 ! A275  A(150,146,152)        109.0991         estimate D2E/DX2                !
 ! A276  A(151,146,152)        109.4228         estimate D2E/DX2                !
 ! A277  A(141,147,159)        105.9303         estimate D2E/DX2                !
 ! A278  A(141,147,160)        111.4309         estimate D2E/DX2                !
 ! A279  A(141,147,161)        111.1881         estimate D2E/DX2                !
 ! A280  A(159,147,160)        109.3119         estimate D2E/DX2                !
 ! A281  A(159,147,161)        109.7148         estimate D2E/DX2                !
 ! A282  A(160,147,161)        109.2025         estimate D2E/DX2                !
 ! A283  A(130,148,156)        111.4249         estimate D2E/DX2                !
 ! A284  A(130,148,157)        111.6559         estimate D2E/DX2                !
 ! A285  A(130,148,158)        105.5479         estimate D2E/DX2                !
 ! A286  A(156,148,157)        109.5571         estimate D2E/DX2                !
 ! A287  A(156,148,158)        109.3571         estimate D2E/DX2                !
 ! A288  A(157,148,158)        109.1907         estimate D2E/DX2                !
 ! A289  A(131,149,153)        111.4181         estimate D2E/DX2                !
 ! A290  A(131,149,154)        111.216          estimate D2E/DX2                !
 ! A291  A(131,149,155)        106.026          estimate D2E/DX2                !
 ! A292  A(153,149,154)        109.1755         estimate D2E/DX2                !
 ! A293  A(153,149,155)        109.4114         estimate D2E/DX2                !
 ! A294  A(154,149,155)        109.532          estimate D2E/DX2                !
 ! A295  A(145,162,163)        105.6358         estimate D2E/DX2                !
 ! A296  A(145,162,164)        111.6042         estimate D2E/DX2                !
 ! A297  A(145,162,165)        111.4379         estimate D2E/DX2                !
 ! A298  A(163,162,164)        109.3792         estimate D2E/DX2                !
 ! A299  A(163,162,165)        109.4342         estimate D2E/DX2                !
 ! A300  A(164,162,165)        109.2664         estimate D2E/DX2                !
 ! A301  A(137,166,167)        105.7491         estimate D2E/DX2                !
 ! A302  A(137,166,168)        111.5106         estimate D2E/DX2                !
 ! A303  A(137,166,169)        111.4424         estimate D2E/DX2                !
 ! A304  A(167,166,168)        109.2325         estimate D2E/DX2                !
 ! A305  A(167,166,169)        109.3726         estimate D2E/DX2                !
 ! A306  A(168,166,169)        109.4407         estimate D2E/DX2                !
 ! A307  A(127,170,171)        105.7411         estimate D2E/DX2                !
 ! A308  A(127,170,172)        111.4455         estimate D2E/DX2                !
 ! A309  A(127,170,173)        111.5287         estimate D2E/DX2                !
 ! A310  A(171,170,172)        109.3909         estimate D2E/DX2                !
 ! A311  A(171,170,173)        109.2043         estimate D2E/DX2                !
 ! A312  A(172,170,173)        109.4368         estimate D2E/DX2                !
 ! A313  A(135,174,175)        110.4356         estimate D2E/DX2                !
 ! A314  A(135,174,176)        105.8536         estimate D2E/DX2                !
 ! A315  A(135,174,177)        112.2634         estimate D2E/DX2                !
 ! A316  A(175,174,176)        109.4229         estimate D2E/DX2                !
 ! A317  A(175,174,177)        109.4747         estimate D2E/DX2                !
 ! A318  A(176,174,177)        109.3028         estimate D2E/DX2                !
 ! D1    D(5,1,2,3)             -1.3816         estimate D2E/DX2                !
 ! D2    D(5,1,2,18)          -178.6645         estimate D2E/DX2                !
 ! D3    D(6,1,2,3)            120.8162         estimate D2E/DX2                !
 ! D4    D(6,1,2,18)           -56.4667         estimate D2E/DX2                !
 ! D5    D(9,1,2,3)           -123.0766         estimate D2E/DX2                !
 ! D6    D(9,1,2,18)            59.6405         estimate D2E/DX2                !
 ! D7    D(2,1,5,4)             -0.5375         estimate D2E/DX2                !
 ! D8    D(2,1,5,17)          -178.4365         estimate D2E/DX2                !
 ! D9    D(6,1,5,4)           -122.4139         estimate D2E/DX2                !
 ! D10   D(6,1,5,17)            59.6871         estimate D2E/DX2                !
 ! D11   D(9,1,5,4)            122.9843         estimate D2E/DX2                !
 ! D12   D(9,1,5,17)           -54.9146         estimate D2E/DX2                !
 ! D13   D(2,1,6,7)            125.0043         estimate D2E/DX2                !
 ! D14   D(2,1,6,10)           -53.1433         estimate D2E/DX2                !
 ! D15   D(5,1,6,7)           -120.0042         estimate D2E/DX2                !
 ! D16   D(5,1,6,10)            61.8483         estimate D2E/DX2                !
 ! D17   D(9,1,6,7)              1.0235         estimate D2E/DX2                !
 ! D18   D(9,1,6,10)          -177.1241         estimate D2E/DX2                !
 ! D19   D(2,1,9,8)           -125.2553         estimate D2E/DX2                !
 ! D20   D(2,1,9,25)            57.1659         estimate D2E/DX2                !
 ! D21   D(5,1,9,8)            119.3133         estimate D2E/DX2                !
 ! D22   D(5,1,9,25)           -58.2655         estimate D2E/DX2                !
 ! D23   D(6,1,9,8)             -2.5656         estimate D2E/DX2                !
 ! D24   D(6,1,9,25)           179.8556         estimate D2E/DX2                !
 ! D25   D(1,2,3,4)              2.7547         estimate D2E/DX2                !
 ! D26   D(1,2,3,21)          -176.1736         estimate D2E/DX2                !
 ! D27   D(18,2,3,4)          -179.7344         estimate D2E/DX2                !
 ! D28   D(18,2,3,21)            1.3373         estimate D2E/DX2                !
 ! D29   D(1,2,18,19)          175.7719         estimate D2E/DX2                !
 ! D30   D(1,2,18,79)           -2.2366         estimate D2E/DX2                !
 ! D31   D(3,2,18,19)           -1.2597         estimate D2E/DX2                !
 ! D32   D(3,2,18,79)         -179.2681         estimate D2E/DX2                !
 ! D33   D(2,3,4,5)             -3.0698         estimate D2E/DX2                !
 ! D34   D(2,3,4,14)           175.8881         estimate D2E/DX2                !
 ! D35   D(21,3,4,5)           175.6871         estimate D2E/DX2                !
 ! D36   D(21,3,4,14)           -5.3551         estimate D2E/DX2                !
 ! D37   D(2,3,21,20)           -0.432          estimate D2E/DX2                !
 ! D38   D(2,3,21,81)          179.9116         estimate D2E/DX2                !
 ! D39   D(4,3,21,20)         -179.0758         estimate D2E/DX2                !
 ! D40   D(4,3,21,81)            1.2678         estimate D2E/DX2                !
 ! D41   D(3,4,5,1)              2.1885         estimate D2E/DX2                !
 ! D42   D(3,4,5,17)          -179.7413         estimate D2E/DX2                !
 ! D43   D(14,4,5,1)          -176.9165         estimate D2E/DX2                !
 ! D44   D(14,4,5,17)            1.1537         estimate D2E/DX2                !
 ! D45   D(3,4,14,15)         -179.2964         estimate D2E/DX2                !
 ! D46   D(3,4,14,82)            1.2399         estimate D2E/DX2                !
 ! D47   D(5,4,14,15)           -0.4322         estimate D2E/DX2                !
 ! D48   D(5,4,14,82)         -179.8959         estimate D2E/DX2                !
 ! D49   D(1,5,17,16)          176.6133         estimate D2E/DX2                !
 ! D50   D(1,5,17,88)           -1.608          estimate D2E/DX2                !
 ! D51   D(4,5,17,16)           -1.0883         estimate D2E/DX2                !
 ! D52   D(4,5,17,88)         -179.3097         estimate D2E/DX2                !
 ! D53   D(1,6,7,8)              0.7943         estimate D2E/DX2                !
 ! D54   D(1,6,7,13)          -177.7853         estimate D2E/DX2                !
 ! D55   D(10,6,7,8)           179.0781         estimate D2E/DX2                !
 ! D56   D(10,6,7,13)            0.4985         estimate D2E/DX2                !
 ! D57   D(1,6,10,11)          177.6473         estimate D2E/DX2                !
 ! D58   D(1,6,10,89)           -0.6146         estimate D2E/DX2                !
 ! D59   D(7,6,10,11)           -0.3147         estimate D2E/DX2                !
 ! D60   D(7,6,10,89)         -178.5766         estimate D2E/DX2                !
 ! D61   D(6,7,8,9)             -2.4821         estimate D2E/DX2                !
 ! D62   D(6,7,8,22)           176.7143         estimate D2E/DX2                !
 ! D63   D(13,7,8,9)           175.8497         estimate D2E/DX2                !
 ! D64   D(13,7,8,22)           -4.9538         estimate D2E/DX2                !
 ! D65   D(6,7,13,12)           -0.3672         estimate D2E/DX2                !
 ! D66   D(6,7,13,86)          179.8978         estimate D2E/DX2                !
 ! D67   D(8,7,13,12)         -178.5584         estimate D2E/DX2                !
 ! D68   D(8,7,13,86)            1.7066         estimate D2E/DX2                !
 ! D69   D(7,8,9,1)              3.1951         estimate D2E/DX2                !
 ! D70   D(7,8,9,25)          -179.0442         estimate D2E/DX2                !
 ! D71   D(22,8,9,1)          -176.121          estimate D2E/DX2                !
 ! D72   D(22,8,9,25)            1.6397         estimate D2E/DX2                !
 ! D73   D(7,8,22,23)          179.7315         estimate D2E/DX2                !
 ! D74   D(7,8,22,84)            0.1554         estimate D2E/DX2                !
 ! D75   D(9,8,22,23)           -1.1396         estimate D2E/DX2                !
 ! D76   D(9,8,22,84)          179.2842         estimate D2E/DX2                !
 ! D77   D(1,9,25,24)          176.6122         estimate D2E/DX2                !
 ! D78   D(1,9,25,78)           -1.9035         estimate D2E/DX2                !
 ! D79   D(8,9,25,24)           -0.7244         estimate D2E/DX2                !
 ! D80   D(8,9,25,78)         -179.2402         estimate D2E/DX2                !
 ! D81   D(6,10,11,12)           0.0064         estimate D2E/DX2                !
 ! D82   D(6,10,11,26)        -178.4175         estimate D2E/DX2                !
 ! D83   D(89,10,11,12)        178.2883         estimate D2E/DX2                !
 ! D84   D(89,10,11,26)         -0.1355         estimate D2E/DX2                !
 ! D85   D(10,11,12,13)          0.1159         estimate D2E/DX2                !
 ! D86   D(10,11,12,87)        179.9766         estimate D2E/DX2                !
 ! D87   D(26,11,12,13)        178.5583         estimate D2E/DX2                !
 ! D88   D(26,11,12,87)         -1.581          estimate D2E/DX2                !
 ! D89   D(10,11,26,34)        -36.2489         estimate D2E/DX2                !
[...]
 Alpha virt. eigenvalues --    2.69286   2.69616   2.69965   2.70233   2.70401
 Alpha virt. eigenvalues --    2.70568   2.70751   2.70972   2.71219   2.71287
 Alpha virt. eigenvalues --    2.71755   2.72062   2.72430   2.72845   2.73247
 Alpha virt. eigenvalues --    2.73600   2.73828   2.74735   2.75069   2.75274
 Alpha virt. eigenvalues --    2.76079   2.76615   2.76780   2.76967   2.77461
 Alpha virt. eigenvalues --    2.78031   2.78280   2.78409   2.79364   2.79549
 Alpha virt. eigenvalues --    2.79709   2.80214   2.80670   2.80911   2.81241
 Alpha virt. eigenvalues --    2.81543   2.81852   2.82494   2.82711   2.83279
 Alpha virt. eigenvalues --    2.83389   2.84056   2.84674   2.84948   2.85390
 Alpha virt. eigenvalues --    2.85686   2.86694   2.86910   2.87685   2.87868
 Alpha virt. eigenvalues --    2.88383   2.88909   2.90042   2.90111   2.90475
 Alpha virt. eigenvalues --    2.91793   2.92164   2.92666   2.94247   2.95553
 Alpha virt. eigenvalues --    2.96142   2.96861   2.97830   2.98411   2.98877
 Alpha virt. eigenvalues --    2.99706   3.00057   3.00321   3.00766   3.00769
 Alpha virt. eigenvalues --    3.01064   3.01289   3.01757   3.01902   3.02120
 Alpha virt. eigenvalues --    3.02904   3.03120   3.03439   3.03824   3.04189
 Alpha virt. eigenvalues --    3.05534   3.06364   3.07378   3.07625   3.08125
 Alpha virt. eigenvalues --    3.09277   3.09804   3.11295   3.11800   3.12834
 Alpha virt. eigenvalues --    3.13796   3.14885   3.16066   3.20688   3.24416
 Alpha virt. eigenvalues --    3.26265   3.26347   3.28362   3.29858   3.30091
 Alpha virt. eigenvalues --    3.30782   3.31761   3.32718   3.33901   3.38096
 Alpha virt. eigenvalues --    3.39988   3.44731   3.45066   3.45170   3.45215
 Alpha virt. eigenvalues --    3.46055   3.46099   3.46265   3.46316   3.53722
 Alpha virt. eigenvalues --    3.53935   4.06559   4.06638   4.06922   4.06928
 Alpha virt. eigenvalues --    4.07168   4.07308   4.07412   4.07577   4.07780
 Alpha virt. eigenvalues --    4.07899   4.09983   4.10319   4.10639   4.10821
 Alpha virt. eigenvalues --    4.10911   4.10966   4.11195   4.11692   4.13353
 Alpha virt. eigenvalues --    4.13444   4.13631   4.13814   4.14252   4.14416
 Alpha virt. eigenvalues --    4.14617   4.16005   4.16231   4.16843   4.17013
 Alpha virt. eigenvalues --    4.17334   4.18220   4.18798   4.19704   4.22190
 Alpha virt. eigenvalues --    4.22348   4.22568   4.22777   4.23091   4.23459
 Alpha virt. eigenvalues --    4.23896   4.24538   4.24627   4.24722   4.25015
 Alpha virt. eigenvalues --    4.25166   4.25558   4.25568   4.25729   4.27282
 Alpha virt. eigenvalues --    4.27477   4.27738   4.28148   4.32325   4.33654
 Alpha virt. eigenvalues --    4.34051   4.34300   4.34697   4.35143   4.35409
 Alpha virt. eigenvalues --    4.35857   4.36977   4.38058   4.38105   4.38698
 Alpha virt. eigenvalues --    4.39510   4.39623   4.40672   4.41356   4.42613
 Alpha virt. eigenvalues --    4.43148   4.43772   4.44391   4.47530   4.49373
 Alpha virt. eigenvalues --    4.49751   4.50255   4.51089   4.52625   4.55535
 Alpha virt. eigenvalues --    4.55823   4.56372   4.57587   4.58235   4.58668
 Alpha virt. eigenvalues --    4.62924   4.63293   4.64112   4.65368   4.68270
 Alpha virt. eigenvalues --    4.79068   4.81361   4.81867   4.81988   4.82436
 Alpha virt. eigenvalues --    4.86559   4.86904   4.90943   4.98577   5.00608
 Alpha virt. eigenvalues --    5.01648   5.01872
          Condensed to atoms (all electrons):
 Mulliken atomic charges:
              1
     1  C   -0.272302
     2  C    0.124743
     3  C    0.075574
     4  C    0.075262
     5  C    0.127526
     6  C    0.118238
     7  C    0.072739
     8  C    0.073165
     9  C    0.119478
    10  C   -0.227070
    11  C    0.313237
    12  C   -0.179615
    13  C   -0.210600
    14  C   -0.209082
    15  C   -0.144335
    16  C    0.262457
    17  C   -0.229569
    18  C   -0.226694
    19  C    0.257246
    20  C   -0.141171
    21  C   -0.209959
    22  C   -0.210481
    23  C   -0.188227
    24  C    0.319615
    25  C   -0.230759
    26  N   -0.639459
    27  N   -0.646678
    28  N   -0.647302
    29  N   -0.658803
    30  C    0.169246
    31  C    0.113215
    32  C    0.322420
    33  C    0.363992
    34  C    0.327606
    35  C    0.129920
    36  C    0.360336
    37  C    0.114256
    38  C   -0.194006
    39  C   -0.205410
    40  C    0.370018
    41  C   -0.187282
    42  C   -0.196061
    43  C   -0.183483
    44  C   -0.204382
    45  C    0.370896
    46  C   -0.190265
    47  C   -0.169342
    48  C    0.362189
    49  C   -0.213647
    50  C   -0.139818
    51  C   -0.213408
    52  C    0.363005
    53  C    0.380518
    54  C   -0.212963
    55  C   -0.137872
    56  C   -0.217709
    57  C    0.377648
    58  C    0.378735
    59  C   -0.218648
    60  C   -0.138339
    61  C   -0.213121
    62  C    0.380270
    63  C   -0.209868
    64  C   -0.207912
    65  C    0.369518
    66  C   -0.184715
    67  C   -0.183711
    68  C   -0.178108
    69  C   -0.187256
    70  C    0.372801
    71  C   -0.201244
    72  C   -0.175550
    73  C    0.355604
    74  C   -0.209545
    75  C   -0.142960
    76  C   -0.179773
    77  C    0.323800
    78  H    0.151037
    79  H    0.148429
    80  H    0.139440
    81  H    0.125568
    82  H    0.125679
    83  H    0.139561
    84  H    0.121342
    85  H    0.127279
    86  H    0.120320
    87  H    0.131838
    88  H    0.148243
    89  H    0.148642
    90  O   -0.521975
    91  C   -0.211922
    92  O   -0.516104
    93  C   -0.207589
    94  O   -0.515677
    95  O   -0.521908
    96  C   -0.210260
    97  C   -0.207867
    98  H    0.131656
    99  H    0.147687
   100  H    0.135504
   101  H    0.124784
   102  H    0.122819
   103  H    0.132448
   104  H    0.138888
   105  H    0.147248
   106  H    0.140226
   107  H    0.128274
   108  H    0.141813
   109  H    0.144604
   110  H    0.125313
   111  H    0.146584
   112  H    0.129070
   113  H    0.133945
   114  H    0.145987
   115  H    0.142579
   116  H    0.161824
   117  H    0.147552
   118  H    0.149321
   119  H    0.161692
   120  H    0.162313
   121  H    0.143480
   122  H    0.145575
   123  H    0.151065
   124  H    0.150243
   125  H    0.162089
   126  H    0.130204
   127  O   -0.507654
   128  H    0.132140
   129  H    0.139921
   130  O   -0.503121
   131  O   -0.504571
   132  H    0.131470
   133  H    0.127580
   134  H    0.129321
   135  O   -0.521885
   136  H    0.130390
   137  O   -0.507689
   138  H    0.131631
   139  H    0.139126
   140  O   -0.503110
   141  O   -0.503205
   142  H    0.130168
   143  H    0.127012
   144  H    0.127263
   145  O   -0.503002
   146  C   -0.228572
   147  C   -0.230563
   148  C   -0.230402
   149  C   -0.232154
   150  H    0.169256
   151  H    0.147380
   152  H    0.177446
   153  H    0.155375
   154  H    0.141127
   155  H    0.201886
   156  H    0.148025
   157  H    0.178596
   158  H    0.168629
   159  H    0.202311
   160  H    0.149416
   161  H    0.143378
   162  C   -0.212482
   163  H    0.171883
   164  H    0.148285
   165  H    0.152061
   166  C   -0.218316
   167  H    0.170100
   168  H    0.157119
   169  H    0.152847
   170  C   -0.218113
   171  H    0.170487
   172  H    0.153710
   173  H    0.155837
   174  C   -0.210440
   175  H    0.135544
   176  H    0.159915
   177  H    0.163014
 Sum of Mulliken atomic charges =   0.00000
 Mulliken charges with hydrogens summed into heavy atoms:
              1
     1  C   -0.272302
     2  C    0.124743
     3  C    0.075574
     4  C    0.075262
     5  C    0.127526
     6  C    0.118238
     7  C    0.072739
     8  C    0.073165
     9  C    0.119478
    10  C   -0.078428
    11  C    0.313237
    12  C   -0.047777
    13  C   -0.090280
    14  C   -0.083403
    15  C   -0.004774
    16  C    0.262457
    17  C   -0.081326
    18  C   -0.078265
    19  C    0.257246
    20  C   -0.001731
    21  C   -0.084391
    22  C   -0.089139
    23  C   -0.060948
    24  C    0.319615
    25  C   -0.079722
    26  N   -0.639459
    27  N   -0.646678
    28  N   -0.647302
    29  N   -0.658803
    30  C    0.169246
    31  C    0.113215
    32  C    0.322420
    33  C    0.363992
    34  C    0.327606
    35  C    0.129920
    36  C    0.360336
    37  C    0.114256
    38  C   -0.061558
    39  C   -0.082591
    40  C    0.370018
    41  C   -0.055626
    42  C   -0.048373
    43  C   -0.047979
    44  C   -0.079598
    45  C    0.370896
    46  C   -0.051376
    47  C   -0.022094
    48  C    0.362189
    49  C   -0.086384
    50  C   -0.012806
    51  C   -0.083240
    52  C    0.363005
    53  C    0.380518
    54  C   -0.082573
    55  C   -0.006241
    56  C   -0.078583
    57  C    0.377648
    58  C    0.378735
    59  C   -0.078727
    60  C   -0.006199
    61  C   -0.082917
    62  C    0.380270
    63  C   -0.063284
    64  C   -0.082599
    65  C    0.369518
    66  C   -0.055645
    67  C   -0.049767
    68  C   -0.033505
    69  C   -0.045443
    70  C    0.372801
    71  C   -0.072970
    72  C   -0.035324
    73  C    0.355604
    74  C   -0.078075
    75  C   -0.015381
    76  C   -0.050452
    77  C    0.323800
    90  O   -0.521975
    91  C    0.251476
    92  O   -0.516104
    93  C    0.242801
    94  O   -0.515677
    95  O   -0.521908
    96  C    0.248305
    97  C    0.243501
   127  O   -0.507654
   130  O   -0.503121
   131  O   -0.504571
   135  O   -0.521885
   137  O   -0.507689
   140  O   -0.503110
   141  O   -0.503205
   145  O   -0.503002
   146  C    0.265510
   147  C    0.264543
   148  C    0.264848
   149  C    0.266233
   162  C    0.259747
   166  C    0.261750
   170  C    0.261921
   174  C    0.248034
 Sum of Mulliken charges with hydrogens summed into heavy atoms =   0.00000
 Electronic spatial extent (au):  <R**2>=         109545.1718
 Charge=              0.0000 electrons
 Dipole moment (field-independent basis, Debye):
    X=              1.3466    Y=             -3.8146    Z=              2.2054  Tot=              4.6074
 Quadrupole moment (field-independent basis, Debye-Ang):
   XX=           -537.6324   YY=           -512.8133   ZZ=           -526.8842
   XY=             -8.7894   XZ=              6.2726   YZ=             -1.9045
 Traceless Quadrupole moment (field-independent basis, Debye-Ang):
   XX=            -11.8557   YY=             12.9633   ZZ=             -1.1076
   XY=             -8.7894   XZ=              6.2726   YZ=             -1.9045
 Octapole moment (field-independent basis, Debye-Ang**2):
  XXX=              4.8326  YYY=           -176.0201  ZZZ=             -3.7554  XYY=            -12.1468
  XXY=           -324.7129  XXZ=             70.6157  XZZ=             39.7739  YZZ=            -45.2037
  YYZ=            -69.4512  XYZ=            130.1039
 Hexadecapole moment (field-independent basis, Debye-Ang**3):
 XXXX=         -63402.1825 YYYY=         -55648.9367 ZZZZ=         -17861.8264 XXXY=           -129.5259
 XXXZ=            310.7752 YYYX=           -604.9803 YYYZ=           -380.4644 ZZZX=             31.8735
 ZZZY=            -76.7582 XXYY=         -20130.8992 XXZZ=         -13302.0626 YYZZ=         -11247.2325
 XXYZ=            233.4075 YYXZ=            943.3801 ZZXY=           -601.1947
 N-N= 2.010773893436D+04 E-N=-5.046602039248D+04  KE= 4.365190051958D+03
 Leave Link  601 at Fri Aug  8 04:11:25 2014, MaxMem= 2147483648 cpu:      59.3
 (Enter /opt/g09/l9999.exe)
 1\1\GINC-CHPC-SCANDIUM\FOpt\RB3LYP\6-31G(d)\C85H76N4O12\JARVIST\08-Aug
 -2014\0\\#p opt b3lyp/6-31g*\\Auto Spiro\\0,1\C,12.3050175129,10.37026
 439,12.9857211938\C,10.991719862,9.6816581133,12.5948983285\C,11.21450
 41674,8.3250943715,12.2916671937\C,12.6374535449,8.0280412078,12.47609
 06546\C,13.3001051917,9.208952338,12.8594227135\C,12.6442368523,11.586
 7234793,12.1161313138\C,12.8086265596,12.7386454225,12.9131261569\C,12
 .6308106643,12.3665009803,14.3187244904\C,12.3002636069,10.9970127926,
 14.385819854\C,12.7587158507,11.6447032189,10.7384832596\C,13.04263369
 63,12.8780572264,10.1223281994\C,13.1932085324,14.0295940675,10.913569
 2418\C,13.0752201098,13.9655836472,12.3019340168\C,13.3543392486,6.835
 334166,12.3448254113\C,14.7252061588,6.8350629514,12.5897385623\C,15.3
 870982596,8.0132389287,12.9755405787\C,14.6656168246,9.2107718723,13.1
 091630264\C,9.7230388222,10.2357146258,12.4876668038\C,8.6550737419,9.
 4237693297,12.0722930449\C,8.8775181673,8.0683876393,11.7764813621\C,1
 0.1520073249,7.5164771079,11.8784416856\C,12.7507361116,13.1010844568,
 15.4995950243\C,12.5168640853,12.4755393793,16.7248723862\C,12.1609724
 835,11.1174524392,16.7874171684\C,12.0632852491,10.372745573,15.597150
 4252\N,13.1683964784,12.9564055449,8.712089238\N,16.7923406661,8.00237
 56214,13.2267201163\N,7.3436830765,9.9782807037,11.9556053866\N,11.903
 9898658,10.4982977114,18.0405236803\C,12.781707138,10.7162559222,19.13
 41518503\C,6.7295412822,10.4861141336,13.1335098934\C,10.823348666,9.5
 829812254,18.1660650907\C,6.6612323168,9.9964611671,10.7229740664\C,13
 .9087655274,11.9738958555,8.0071643501\C,12.5323230069,14.0102954442,8
 .0065880525\C,17.36252125,7.1474527524,14.1922273257\C,17.6197487287,8
 .8208192074,12.4090409156\C,18.7256508629,6.8203027143,14.1627334589\C
 ,19.2979330603,5.9963803543,15.1357688123\C,18.511353343,5.464088046,1
 6.1599057774\C,17.1474152908,5.7805978035,16.1969073432\C,16.583246390
 9,6.6120325435,15.2387839224\C,13.4935072569,11.5039835644,6.757538023
 3\C,14.2348370268,10.5413403868,6.0637988731\C,15.4018750207,10.019927
 0493,6.6280456286\C,15.8285510415,10.4923477707,7.8764894174\C,15.0997
 126301,11.4587305639,8.5505101212\C,13.2924117998,14.9441262391,7.2693
 40186\C,12.6630304196,15.9704105378,6.553430688\C,11.2743444337,16.080
 3080965,6.5995573138\C,10.4985680283,15.1849788789,7.3327727089\C,11.1
 254797258,14.1412644632,8.0274176829\C,18.1898349241,10.0066046646,12.
 9158576646\C,19.0117246086,10.8042440158,12.1084130345\C,19.2510957643
 ,10.4170163272,10.7912496538\C,18.6975664628,9.2540912321,10.259650740
 5\C,17.8837236245,8.4513633736,11.0725020546\C,6.2225393749,9.59797778
 84,14.1066066733\C,5.6179778107,10.0903637687,15.2728057452\C,5.513648
 5437,11.4679413556,15.4539994291\C,6.0002077312,12.3683025147,14.50796
 00668\C,6.6144999489,11.8748442184,13.3492677825\C,7.3427068987,9.8244
 251661,9.5077814407\C,6.6656068456,9.8428876621,8.2848360312\C,5.28522
 34796,10.0526761012,8.2460125363\C,4.5976370616,10.2367192932,9.452000
 0063\C,5.2682004336,10.2029117926,10.6669779664\C,9.5964536085,9.85072
 15609,17.5329212026\C,8.5343331594,8.9664014406,17.6369550889\C,8.6590
 451523,7.7920138799,18.3900599452\C,9.8661537238,7.5230531087,19.04144
 34478\C,10.9391408103,8.4108174216,18.9187467672\C,14.1690185647,10.44
 12248954,19.0067218372\C,15.0332224647,10.6371444345,20.0889050199\C,1
 4.5250985306,11.0709382291,21.3155943729\C,13.1678489129,11.3299790149
 ,21.4673747583\C,12.3033897792,11.1658246145,20.380759018\H,11.8213281
 055,9.3160106369,15.6441911462\H,9.5446042481,11.2865674351,12.6939082
 99\H,8.0335781322,7.4579283254,11.4728170383\H,10.3096187407,6.4657502
 743,11.6478327653\H,12.8560339576,5.9169059964,12.0444155673\H,15.3055
 907497,5.9252060087,12.4778341469\H,13.0159892536,14.1554283948,15.475
 2859891\H,12.6082517891,13.0409121736,17.6473535516\H,13.2028799143,14
 .8674732318,12.8960823083\H,13.4157639629,14.9744857453,10.4273751903\
 H,15.1816879064,10.1112952942,13.4276385629\H,12.6166828468,10.7601626
 511,10.125870484\O,7.5496254536,6.9818816605,18.4191049068\C,7.6286774
 94,5.7804314544,19.1654855738\O,4.5233042101,10.095241944,7.1030373182
 \C,5.181019902,9.8993949818,5.8667109397\O,18.9674824687,4.6401357146,
 17.1603351714\O,16.1943325733,9.054621462,6.053264657\C,15.7967213464,
 8.53828623,4.7963657948\C,20.3357497199,4.2832513217,17.1460460347\H,1
 6.5392893719,5.3686098349,16.9969067132\H,15.5265615198,6.8488083679,1
 5.297625774\H,12.5776035129,11.8888184735,6.3198323879\H,13.8766803013
 ,10.1988523839,5.0991825748\H,20.3575038715,5.773843253,15.071013656\H
 ,19.3547061806,7.2121725427,13.3707121925\H,16.748268182,10.1047116365
 ,8.3023515926\H,15.4513875397,11.8224467063,9.510034868\H,11.876480758
 8,8.185450161,19.4173989157\H,9.995819306,6.6236754958,19.6330310524\H
 ,7.5915445393,9.1835465451,17.1457554843\H,9.4806720715,10.7558304762,
 16.9457730874\H,7.2365333531,9.6976512966,7.374217448\H,8.4157423477,9
 .6681008868,9.5098848511\H,3.5237185561,10.3954438458,9.4185088859\H,4
 .7079554792,10.3355397561,11.5862509453\H,5.6657323321,8.9142241309,5.
 8138983945\H,5.9364385738,10.6756111005,5.6779717294\H,4.4069977072,9.
 9595818372,5.0983942273\H,15.7662681656,9.322113168,4.0268718492\H,14.
 8121246359,8.0534783312,4.8494110733\H,16.5487858577,7.7955121114,4.52
 15884033\H,20.4877197805,3.6294911663,18.0077156796\H,20.9882090821,5.
 162888926,17.2419286925\H,20.6062687484,3.7402704996,16.2293516662\H,7
 .823441344,5.9765006872,20.2286692877\H,8.4092998501,5.112084991,18.77
 70016469\H,6.6557879567,5.2951706066,19.0624029754\H,5.9100409939,13.4
 336486999,14.6809751631\O,7.1427571829,12.6651174311,12.3715074523\H,5
 .0408233533,11.8494989618,16.3549380862\H,5.220003482,9.4147003049,16.
 0202776714\O,6.3554166794,8.2769406292,13.8175448309\O,14.564238076,9.
 9734906178,17.7923380043\H,16.0906585901,10.4223734431,19.9909593866\H
 ,15.201010047,11.2047234067,22.1557117262\H,12.7499963758,11.663507066
 ,22.4116360515\O,10.9622202284,11.38520077,20.5956391351\H,19.45006725
 54,11.7183321828,12.4895604668\O,17.8744158517,10.3037185668,14.208909
 9721\H,19.884824659,11.0374239279,10.1633182973\H,18.9109044489,8.9721
 519563,9.2356574688\O,17.3123331525,7.2874512528,10.6652347829\O,10.46
 15347356,13.1990000335,8.7483532554\H,9.420188168,15.286114689,7.34297
 1201\H,10.7863238745,16.881973816,6.0517419429\H,13.2433978993,16.6862
 358029,5.9839834636\O,14.6422268373,14.7667643189,7.321847959\C,17.501
 6727568,6.8674667189,9.3202081107\C,9.0538075931,13.3203410818,8.89592
 68148\C,5.8878577187,7.3206659033,14.7606272516\C,15.944525074,9.71977
 7405,17.573549294\H,16.9559758425,5.9267434528,9.2286033482\H,18.56300
 02596,6.6920109638,9.1000964792\H,17.0951584348,7.5921090253,8.6043611
 782\H,16.3133381392,8.912537371,18.2193696668\H,16.5462673142,10.62236
 05777,17.746351739\H,16.0364044799,9.4156333767,16.5302718739\H,4.8074
 222588,7.4193283109,14.9292197704\H,6.4163312056,7.3977003402,15.71847
 18599\H,6.0936021191,6.3462573993,14.3140878074\H,8.7472641795,12.5152
 149778,9.5645519586\H,8.5358183328,13.2080569698,7.9344899256\H,8.7832
 329474,14.2882095315,9.3387235521\C,15.4681186811,15.6293533049,6.5584
 921641\H,16.4909136989,15.2903853171,6.73261373\H,15.3720741028,16.674
 6166735,6.8819308617\H,15.2412050347,15.5622661166,5.4863818488\C,18.4
 279637029,11.4783508882,14.7823267666\H,18.0469151876,11.5169026208,15
 .8040645949\H,18.1094460401,12.3799321053,14.243550448\H,19.5246255078
 ,11.4368664607,14.8043437425\C,7.0372056706,14.0733106966,12.514705816
 \H,7.5173802912,14.4974157797,11.6313315388\H,5.9888495259,14.39660066
 67,12.5496116236\H,7.5569379467,14.4286011904,13.4137946256\C,10.40800
 09645,12.5415870894,19.9706761871\H,10.9345029481,13.4502368597,20.294
 0474794\H,9.3666474102,12.5912366937,20.2969952875\H,10.4407728574,12.
 471531198,18.8785295347\\Version=EM64L-G09RevA.02\State=1-A\HF=-4406.3
 56519\RMSD=4.872e-09\RMSF=2.831e-06\Dipole=1.1120622,1.0162799,-1.0081
 61\Quadrupole=-2.0163697,1.3068114,0.7095582,2.2359731,-11.5888897,-3.
 1058169\PG=C01 [X(C85H76N4O12)]\\@


 DIATOMIC MOLECULES ARE PECULIAR BECAUSE THEY ONLY HAVE TWO ENDS,
 AND THESE ENDS ARE VERY CLOSE TOGETHER.
 KLAUS RUEDENBERG, REV.MOD.PHYS. PG 176, 32, (1960)
 Job cpu time:  5 days  7 hours  2 minutes 34.4 seconds.
 File lengths (MBytes):  RWF=   1717 Int=      0 D2E=      0 Chk=    170 Scr=      1
 Normal termination of Gaussian 09 at Fri Aug  8 04:11:25 2014.
