 Entering Gaussian System, Link 0=g09
 Input=b3lyp-631gs_opt/HF_6.com
 Output=b3lyp-631gs_opt/HF_6.log
 Initial command:
 /opt/g09/l1.exe /home/jarvist/super_spiro/Gau-42816.inp -scrdir=/home/jarvist/super_spiro/
 Default is to use a total of   8 processors:
                                8 via shared-memory
                                1 via Linda
 Entering Link 1 = /opt/g09/l1.exe PID=     42818.
  
 Copyright (c) 1988,1990,1992,1993,1995,1998,2003,2009, Gaussian, Inc.
                  All Rights Reserved.
  
 This is part of the Gaussian(R) 09 program.  It is based on
 the Gaussian(R) 03 system (copyright 2003, Gaussian, Inc.),
 the Gaussian(R) 98 system (copyright 1998, Gaussian, Inc.),
 the Gaussian(R) 94 system (copyright 1995, Gaussian, Inc.),
 the Gaussian 92(TM) system (copyright 1992, Gaussian, Inc.),
 the Gaussian 90(TM) system (copyright 1990, Gaussian, Inc.),
 the Gaussian 88(TM) system (copyright 1988, Gaussian, Inc.),
 the Gaussian 86(TM) system (copyright 1986, Carnegie Mellon
 University), and the Gaussian 82(TM) system (copyright 1983,
 Carnegie Mellon University). Gaussian is a federally registered
 trademark of Gaussian, Inc.
  
 This software contains proprietary and confidential information,
 including trade secrets, belonging to Gaussian, Inc.
  
 This software is provided under written license and may be
 used, copied, transmitted, or stored only in accord with that
 written license.
  
 The following legend is applicable only to US Government
 contracts under FAR:
  
                    RESTRICTED RIGHTS LEGEND
  
 Use, reproduction and disclosure by the US Government is
 subject to restrictions as set forth in subparagraphs (a)
 and (c) of the Commercial Computer Software - Restricted
 Rights clause in FAR 52.227-19.
  
 Gaussian, Inc.
 340 Quinnipiac St., Bldg. 40, Wallingford CT 06492
  
  
 ---------------------------------------------------------------
 Warning -- This program may not be used in any manner that
 competes with the business of Gaussian, Inc. or will provide
 assistance to any competitor of Gaussian, Inc.  The licensee
 of this program is prohibited from giving any competitor of
 Gaussian, Inc. access to this program.  By using this program,
 the user acknowledges that Gaussian, Inc. is engaged in the
 business of creating and licensing software in the field of
 computational chemistry and represents and warrants to the
 licensee that it is not a competitor of Gaussian, Inc. and that
 it will not use this program in any manner prohibited above.
 ---------------------------------------------------------------
  

 Cite this work as:
 Gaussian 09, Revision A.02,
 M. J. Frisch, G. W. Trucks, H. B. Schlegel, G. E. Scuseria, 
 M. A. Robb, J. R. Cheeseman, G. Scalmani, V. Barone, B. Mennucci, 
 G. A. Petersson, H. Nakatsuji, M. Caricato, X. Li, H. P. Hratchian, 
 A. F. Izmaylov, J. Bloino, G. Zheng, J. L. Sonnenberg, M. Hada, 
 M. Ehara, K. Toyota, R. Fukuda, J. Hasegawa, M. Ishida, T. Nakajima, 
 Y. Honda, O. Kitao, H. Nakai, T. Vreven, J. A. Montgomery, Jr., 
 J. E. Peralta, F. Ogliaro, M. Bearpark, J. J. Heyd, E. Brothers, 
 K. N. Kudin, V. N. Staroverov, R. Kobayashi, J. Normand, 
 K. Raghavachari, A. Rendell, J. C. Burant, S. S. Iyengar, J. Tomasi, 
 M. Cossi, N. Rega, J. M. Millam, M. Klene, J. E. Knox, J. B. Cross, 
 V. Bakken, C. Adamo, J. Jaramillo, R. Gomperts, R. E. Stratmann, 
 O. Yazyev, A. J. Austin, R. Cammi, C. Pomelli, J. W. Ochterski, 
 R. L. Martin, K. Morokuma, V. G. Zakrzewski, G. A. Voth, 
 P. Salvador, J. J. Dannenberg, S. Dapprich, A. D. Daniels, 
 O. Farkas, J. B. Foresman, J. V. Ortiz, J. Cioslowski, 
 and D. J. Fox, Gaussian, Inc., Wallingford CT, 2009.
 
 ******************************************
 Gaussian 09:  EM64L-G09RevA.02 11-Jun-2009
                 8-Aug-2014 
 ******************************************
 %mem=16GB
 %nprocs=24
 Will use up to   24 processors via shared memory.
 Default route:  MaxDisk=100GB
 -------------------
 #p opt b3lyp/6-31g*
 -------------------
 1/14=-1,18=20,19=15,26=3,38=1/1,3;
 2/9=110,12=2,17=6,18=5,40=1/2;
 3/5=1,6=6,7=1,11=2,16=1,25=1,30=1,71=1,74=-5/1,2,3;
 4//1;
 5/5=2,38=5/2;
 6/7=2,8=2,9=2,10=2,28=1/1;
 7//1,2,3,16;
 1/14=-1,18=20,19=15/3(2);
 2/9=110/2;
 99//99;
 2/9=110/2;
 3/5=1,6=6,7=1,11=2,16=1,25=1,30=1,71=1,74=-5/1,2,3;
 4/5=5,16=3/1;
 5/5=2,38=5/2;
 7//1,2,3,16;
 1/14=-1,18=20,19=15/3(-5);
 2/9=110/2;
 6/7=2,8=2,9=2,10=2,19=2,28=1/1;
 99/9=1/99;
 Leave Link    1 at Fri Aug  8 04:11:25 2014, MaxMem= 2147483648 cpu:       1.5
 (Enter /opt/g09/l101.exe)
 ----------
 Auto Spiro
 ----------
 Symbolic Z-matrix:
 Charge =  0 Multiplicity = 1
 C                     12.53865   10.49438   12.68619 
 C                     11.22069   9.85475   12.24211 
 C                     11.39299   8.472     12.02561 
 C                     12.78721   8.12542   12.28265 
 C                     13.49603   9.3027    12.5981 
 C                     12.92271   11.74465   11.89254 
 C                     13.05578   12.85468   12.75743 
 C                     12.82056   12.41795   14.12809 
 C                     12.49139   11.0464   14.12072 
 C                     13.07256   11.88144   10.52214 
 C                     13.3568   13.15363   9.985 
 C                     13.49962   14.25524   10.84707 
 C                     13.34791   14.11296   12.22459 
 C                     13.45325   6.89341   12.28203 
 C                     14.80989   6.85103   12.58852 
 C                     15.51975   8.02841   12.88624 
 C                     14.85407   9.26623   12.88269 
 C                     9.99631   10.47027   12.0335 
 C                     8.90467   9.69601   11.59772 
 C                     9.07148   8.31126   11.39794 
 C                     10.3045   7.69998   11.60634 
 C                     12.89149   13.09735   15.34743 
 C                     12.64026   12.4092   16.53145 
 C                     12.32094   11.03661   16.5238 
 C                     12.23966   10.35389   15.2929 
 N                     13.47082   13.32559   8.58258 
 N                     16.90616   7.96982   13.20407 
 N                     7.6419    10.29644   11.35538 
 N                     12.12314   10.35665   17.74523 
 C                     12.84936   10.76899   18.89513 
 C                     7.23067   11.41235   12.12643 
 C                     11.1451   9.33978   17.88701 
 C                     6.8915    9.94483   10.1999 
 C                     14.25508   12.42044   7.82017 
 C                     13.05733   14.54145   7.98218 
 C                     17.37654   7.14969   14.25075 
 C                     17.79835   8.82415   12.50396 
 C                     18.70274   6.69093   14.27153 
 C                     19.17882   5.89211   15.31362 
 C                     18.32607   5.51583   16.35744 
 C                     16.99775   5.96342   16.34327 
 C                     16.53246   6.77315   15.31578 
 C                     13.85769   12.0465   6.5304 
 C                     14.63536   11.18423   5.75514 
 C                     15.82994   10.66734   6.27235 
 C                     16.2327   11.03529   7.56385 
 C                     15.45919   11.89968   8.32568 
 C                     13.92634   15.27012   7.16066 
 C                     13.52663   16.45677   6.54568 
 C                     12.24055   16.9453   6.76481 
 C                     11.35278   16.24007   7.58308 
 C                     11.73956   15.0361   8.18163 
 C                     18.54513   9.79944   13.17173 
 C                     19.43063   10.63173   12.48612 
 C                     19.56857   10.49551   11.10556 
 C                     18.83956   9.52412   10.4139 
 C                     17.96196   8.6768    11.10177 
 C                     7.23149   11.36913   13.54299 
 C                     6.89022   12.50958   14.27441 
 C                     6.49717   13.68313   13.63238 
 C                     6.4408    13.71801   12.23708 
 C                     6.81192   12.59778   11.49832 
 C                     7.51709   9.6481    8.98305 
 C                     6.77245   9.2932    7.8557 
 C                     5.37467   9.25087   7.92419 
 C                     4.739     9.56152   9.13592 
 C                     5.48616   9.89414   10.25664 
 C                     9.90266   9.42054   17.23117 
 C                     8.94561   8.43074   17.40571 
 C                     9.19158   7.33499   18.24551 
 C                     10.42176   7.24612   18.90714 
 C                     11.38654   8.23777   18.71769 
 C                     14.26896   10.74548   18.89507 
 C                     14.96743   11.16755   20.03266 
 C                     14.27504   11.57898   21.17534 
 C                     12.88145   11.57707   21.19286 
 C                     12.18169   11.18071   20.05279 
 H                     12.01132   9.28835   15.27703 
 H                     9.87598   11.54262   12.18776 
 H                     8.21937   7.71831   11.06715 
 H                     10.41007   6.62677   11.44299 
 H                     12.92154   5.97153   12.04248 
 H                     15.34648   5.90286   12.58991 
 H                     13.13879   14.15929   15.38255 
 H                     12.69253   12.93203   17.48584 
 H                     13.45944   14.98204   12.87441 
 H                     13.72804   15.23167   10.42028 
 H                     15.40125   10.1752   13.13499 
 H                     12.9455   11.03006   9.85314 
 O                     8.17653   6.41806   18.35168 
 C                     8.39936   5.29278   19.1915 
 O                     4.55015   8.92368   6.88065 
 C                     5.16221   8.62617   5.63129 
 O                     18.68766   4.72846   17.42348 
 O                     16.66489   9.80687   5.60476 
 C                     16.29283   9.42836   4.28524 
 C                     20.02887   4.26078   17.46056 
 H                     16.33837   5.67626   17.16215 
 H                     15.5005   7.12062   15.33405 
 H                     12.92811   12.44429   6.12422 
 H                     14.29289   10.9169   4.75756 
 H                     20.2153   5.56131   15.28809 
 H                     19.37752   6.96442   13.46141 
 H                     17.17539   10.65264   7.95336 
 H                     15.79082   12.18339   9.32383 
 H                     12.34268   8.15757   19.23375 
 H                     10.64862   6.40864   19.56368 
 H                     7.98027   8.50398   16.90678 
 H                     9.68395   10.2645   16.57824 
 H                     7.29596   9.06716   6.92906 
 H                     8.60341   9.68849   8.91481 
 H                     3.65103   9.52345   9.18237 
 H                     4.97872   10.12921   11.19198 
 H                     5.83023   7.7528    5.70543 
 H                     5.73301   9.48667   5.24642 
 H                     4.34264   8.3977    4.9424 
 H                     16.22572   10.30259   3.61765 
 H                     15.33075   8.89079   4.27402 
 H                     17.08417   8.76093   3.92862 
 H                     20.11613   3.6665    18.37616 
 H                     20.74897   5.09488   17.49845 
 H                     20.26125   3.62458   16.59069 
 H                     8.57375   5.59555   20.23696 
 H                     9.25422   4.69041   18.84393 
 H                     7.48623   4.69104   19.13717 
 H                     6.12196   14.62389   11.72162 
 H                     6.78877   12.62412   10.40876 
 H                     6.22419   14.55951   14.21945 
 H                     6.92213   12.44327   15.36188 
 O                     7.62151   10.2506   14.24379 
 O                     14.8598   10.28371   17.75907 
 H                     16.05529   11.15756   20.03941 
 H                     14.83647   11.89656   22.05395 
 H                     12.33863   11.89489   22.08235 
 H                     11.09179   11.18032   20.04346 
 H                     19.99841   11.38861   13.02598 
 H                     18.42075   9.89159   14.25099 
 H                     20.2507   11.14267   10.55436 
 H                     18.97668   9.41332   9.34002 
 O                     17.24861   7.67368   10.52152 
 O                     10.92036   14.27032   8.95543 
 H                     10.3454   16.62229   7.73445 
 H                     11.91559   17.87542   6.29909 
 H                     14.22386   17.00097   5.90957 
 H                     14.93389   14.884    7.0079 
 C                     17.40645   7.45963   9.12149 
 C                     9.61329   14.76073   9.23287 
 C                     6.75286   9.11577   14.11477 
 C                     16.28253   10.22783   17.71955 
 H                     16.77494   6.59783   8.88335 
 H                     18.45278   7.2285    8.86567 
 H                     17.06841   8.32785   8.53675 
 H                     16.68276   9.57635   18.51224 
 H                     16.72606   11.23187   17.8112 
 H                     16.53441   9.8019    16.7433 
 H                     7.23529   8.29789   14.66037 
 H                     6.61978   8.81872   13.06516 
 H                     5.7701    9.33299   14.56397 
 H                     9.15097   14.01984   9.89253 
 H                     9.01453   14.85849   8.31285 
 H                     9.65034   15.73366   9.74777 
 
 NAtoms=    161 NQM=    161 NQMF=      0 NMic=      0 NMicF=      0 NTot=    161.
                    Isotopes and Nuclear Properties:
 (Nuclear quadrupole moments (NQMom) in fm**2, nuclear magnetic moments (NMagM)
  in nuclear magnetons)

  Atom         1           2           3           4           5           6           7           8           9          10
 IAtWgt=          12          12          12          12          12          12          12          12          12          12
 AtmWgt=  12.0000000  12.0000000  12.0000000  12.0000000  12.0000000  12.0000000  12.0000000  12.0000000  12.0000000  12.0000000
 NucSpn=           0           0           0           0           0           0           0           0           0           0
 AtZEff=   0.0000000   0.0000000   0.0000000   0.0000000   0.0000000   0.0000000   0.0000000   0.0000000   0.0000000   0.0000000
 NQMom=    0.0000000   0.0000000   0.0000000   0.0000000   0.0000000   0.0000000   0.0000000   0.0000000   0.0000000   0.0000000
 NMagM=    0.0000000   0.0000000   0.0000000   0.0000000   0.0000000   0.0000000   0.0000000   0.0000000   0.0000000   0.0000000

  Atom        11          12          13          14          15          16          17          18          19          20
 IAtWgt=          12          12          12          12          12          12          12          12          12          12
 AtmWgt=  12.0000000  12.0000000  12.0000000  12.0000000  12.0000000  12.0000000  12.0000000  12.0000000  12.0000000  12.0000000
 NucSpn=           0           0           0           0           0           0           0           0           0           0
 AtZEff=   0.0000000   0.0000000   0.0000000   0.0000000   0.0000000   0.0000000   0.0000000   0.0000000   0.0000000   0.0000000
 NQMom=    0.0000000   0.0000000   0.0000000   0.0000000   0.0000000   0.0000000   0.0000000   0.0000000   0.0000000   0.0000000
 NMagM=    0.0000000   0.0000000   0.0000000   0.0000000   0.0000000   0.0000000   0.0000000   0.0000000   0.0000000   0.0000000

  Atom        21          22          23          24          25          26          27          28          29          30
 IAtWgt=          12          12          12          12          12          14          14          14          14          12
 AtmWgt=  12.0000000  12.0000000  12.0000000  12.0000000  12.0000000  14.0030740  14.0030740  14.0030740  14.0030740  12.0000000
 NucSpn=           0           0           0           0           0           2           2           2           2           0
 AtZEff=   0.0000000   0.0000000   0.0000000   0.0000000   0.0000000   0.0000000   0.0000000   0.0000000   0.0000000   0.0000000
 NQMom=    0.0000000   0.0000000   0.0000000   0.0000000   0.0000000   2.0440000   2.0440000   2.0440000   2.0440000   0.0000000
 NMagM=    0.0000000   0.0000000   0.0000000   0.0000000   0.0000000   0.4037610   0.4037610   0.4037610   0.4037610   0.0000000

  Atom        31          32          33          34          35          36          37          38          39          40
 IAtWgt=          12          12          12          12          12          12          12          12          12          12
 AtmWgt=  12.0000000  12.0000000  12.0000000  12.0000000  12.0000000  12.0000000  12.0000000  12.0000000  12.0000000  12.0000000
 NucSpn=           0           0           0           0           0           0           0           0           0           0
 AtZEff=   0.0000000   0.0000000   0.0000000   0.0000000   0.0000000   0.0000000   0.0000000   0.0000000   0.0000000   0.0000000
 NQMom=    0.0000000   0.0000000   0.0000000   0.0000000   0.0000000   0.0000000   0.0000000   0.0000000   0.0000000   0.0000000
 NMagM=    0.0000000   0.0000000   0.0000000   0.0000000   0.0000000   0.0000000   0.0000000   0.0000000   0.0000000   0.0000000

  Atom        41          42          43          44          45          46          47          48          49          50
 IAtWgt=          12          12          12          12          12          12          12          12          12          12
 AtmWgt=  12.0000000  12.0000000  12.0000000  12.0000000  12.0000000  12.0000000  12.0000000  12.0000000  12.0000000  12.0000000
 NucSpn=           0           0           0           0           0           0           0           0           0           0
 AtZEff=   0.0000000   0.0000000   0.0000000   0.0000000   0.0000000   0.0000000   0.0000000   0.0000000   0.0000000   0.0000000
 NQMom=    0.0000000   0.0000000   0.0000000   0.0000000   0.0000000   0.0000000   0.0000000   0.0000000   0.0000000   0.0000000
 NMagM=    0.0000000   0.0000000   0.0000000   0.0000000   0.0000000   0.0000000   0.0000000   0.0000000   0.0000000   0.0000000

  Atom        51          52          53          54          55          56          57          58          59          60
 IAtWgt=          12          12          12          12          12          12          12          12          12          12
 AtmWgt=  12.0000000  12.0000000  12.0000000  12.0000000  12.0000000  12.0000000  12.0000000  12.0000000  12.0000000  12.0000000
 NucSpn=           0           0           0           0           0           0           0           0           0           0
 AtZEff=   0.0000000   0.0000000   0.0000000   0.0000000   0.0000000   0.0000000   0.0000000   0.0000000   0.0000000   0.0000000
 NQMom=    0.0000000   0.0000000   0.0000000   0.0000000   0.0000000   0.0000000   0.0000000   0.0000000   0.0000000   0.0000000
 NMagM=    0.0000000   0.0000000   0.0000000   0.0000000   0.0000000   0.0000000   0.0000000   0.0000000   0.0000000   0.0000000

  Atom        61          62          63          64          65          66          67          68          69          70
 IAtWgt=          12          12          12          12          12          12          12          12          12          12
 AtmWgt=  12.0000000  12.0000000  12.0000000  12.0000000  12.0000000  12.0000000  12.0000000  12.0000000  12.0000000  12.0000000
 NucSpn=           0           0           0           0           0           0           0           0           0           0
 AtZEff=   0.0000000   0.0000000   0.0000000   0.0000000   0.0000000   0.0000000   0.0000000   0.0000000   0.0000000   0.0000000
 NQMom=    0.0000000   0.0000000   0.0000000   0.0000000   0.0000000   0.0000000   0.0000000   0.0000000   0.0000000   0.0000000
 NMagM=    0.0000000   0.0000000   0.0000000   0.0000000   0.0000000   0.0000000   0.0000000   0.0000000   0.0000000   0.0000000

  Atom        71          72          73          74          75          76          77          78          79          80
 IAtWgt=          12          12          12          12          12          12          12           1           1           1
 AtmWgt=  12.0000000  12.0000000  12.0000000  12.0000000  12.0000000  12.0000000  12.0000000   1.0078250   1.0078250   1.0078250
 NucSpn=           0           0           0           0           0           0           0           1           1           1
 AtZEff=   0.0000000   0.0000000   0.0000000   0.0000000   0.0000000   0.0000000   0.0000000   0.0000000   0.0000000   0.0000000
 NQMom=    0.0000000   0.0000000   0.0000000   0.0000000   0.0000000   0.0000000   0.0000000   0.0000000   0.0000000   0.0000000
 NMagM=    0.0000000   0.0000000   0.0000000   0.0000000   0.0000000   0.0000000   0.0000000   2.7928460   2.7928460   2.7928460

  Atom        81          82          83          84          85          86          87          88          89          90
 IAtWgt=           1           1           1           1           1           1           1           1           1          16
 AtmWgt=   1.0078250   1.0078250   1.0078250   1.0078250   1.0078250   1.0078250   1.0078250   1.0078250   1.0078250  15.9949146
 NucSpn=           1           1           1           1           1           1           1           1           1           0
 AtZEff=   0.0000000   0.0000000   0.0000000   0.0000000   0.0000000   0.0000000   0.0000000   0.0000000   0.0000000   0.0000000
 NQMom=    0.0000000   0.0000000   0.0000000   0.0000000   0.0000000   0.0000000   0.0000000   0.0000000   0.0000000   0.0000000
 NMagM=    2.7928460   2.7928460   2.7928460   2.7928460   2.7928460   2.7928460   2.7928460   2.7928460   2.7928460   0.0000000

  Atom        91          92          93          94          95          96          97          98          99         100
 IAtWgt=          12          16          12          16          16          12          12           1           1           1
 AtmWgt=  12.0000000  15.9949146  12.0000000  15.9949146  15.9949146  12.0000000  12.0000000   1.0078250   1.0078250   1.0078250
 NucSpn=           0           0           0           0           0           0           0           1           1           1
 AtZEff=   0.0000000   0.0000000   0.0000000   0.0000000   0.0000000   0.0000000   0.0000000   0.0000000   0.0000000   0.0000000
 NQMom=    0.0000000   0.0000000   0.0000000   0.0000000   0.0000000   0.0000000   0.0000000   0.0000000   0.0000000   0.0000000
 NMagM=    0.0000000   0.0000000   0.0000000   0.0000000   0.0000000   0.0000000   0.0000000   2.7928460   2.7928460   2.7928460

  Atom       101         102         103         104         105         106         107         108         109         110
 IAtWgt=           1           1           1           1           1           1           1           1           1           1
 AtmWgt=   1.0078250   1.0078250   1.0078250   1.0078250   1.0078250   1.0078250   1.0078250   1.0078250   1.0078250   1.0078250
 NucSpn=           1           1           1           1           1           1           1           1           1           1
 AtZEff=   0.0000000   0.0000000   0.0000000   0.0000000   0.0000000   0.0000000   0.0000000   0.0000000   0.0000000   0.0000000
 NQMom=    0.0000000   0.0000000   0.0000000   0.0000000   0.0000000   0.0000000   0.0000000   0.0000000   0.0000000   0.0000000
 NMagM=    2.7928460   2.7928460   2.7928460   2.7928460   2.7928460   2.7928460   2.7928460   2.7928460   2.7928460   2.7928460

  Atom       111         112         113         114         115         116         117         118         119         120
 IAtWgt=           1           1           1           1           1           1           1           1           1           1
 AtmWgt=   1.0078250   1.0078250   1.0078250   1.0078250   1.0078250   1.0078250   1.0078250   1.0078250   1.0078250   1.0078250
 NucSpn=           1           1           1           1           1           1           1           1           1           1
 AtZEff=   0.0000000   0.0000000   0.0000000   0.0000000   0.0000000   0.0000000   0.0000000   0.0000000   0.0000000   0.0000000
 NQMom=    0.0000000   0.0000000   0.0000000   0.0000000   0.0000000   0.0000000   0.0000000   0.0000000   0.0000000   0.0000000
 NMagM=    2.7928460   2.7928460   2.7928460   2.7928460   2.7928460   2.7928460   2.7928460   2.7928460   2.7928460   2.7928460

  Atom       121         122         123         124         125         126         127         128         129         130
 IAtWgt=           1           1           1           1           1           1           1           1           1          16
 AtmWgt=   1.0078250   1.0078250   1.0078250   1.0078250   1.0078250   1.0078250   1.0078250   1.0078250   1.0078250  15.9949146
 NucSpn=           1           1           1           1           1           1           1           1           1           0
 AtZEff=   0.0000000   0.0000000   0.0000000   0.0000000   0.0000000   0.0000000   0.0000000   0.0000000   0.0000000   0.0000000
 NQMom=    0.0000000   0.0000000   0.0000000   0.0000000   0.0000000   0.0000000   0.0000000   0.0000000   0.0000000   0.0000000
 NMagM=    2.7928460   2.7928460   2.7928460   2.7928460   2.7928460   2.7928460   2.7928460   2.7928460   2.7928460   0.0000000

  Atom       131         132         133         134         135         136         137         138         139         140
 IAtWgt=          16           1           1           1           1           1           1           1           1          16
 AtmWgt=  15.9949146   1.0078250   1.0078250   1.0078250   1.0078250   1.0078250   1.0078250   1.0078250   1.0078250  15.9949146
 NucSpn=           0           1           1           1           1           1           1           1           1           0
 AtZEff=   0.0000000   0.0000000   0.0000000   0.0000000   0.0000000   0.0000000   0.0000000   0.0000000   0.0000000   0.0000000
 NQMom=    0.0000000   0.0000000   0.0000000   0.0000000   0.0000000   0.0000000   0.0000000   0.0000000   0.0000000   0.0000000
 NMagM=    0.0000000   2.7928460   2.7928460   2.7928460   2.7928460   2.7928460   2.7928460   2.7928460   2.7928460   0.0000000

  Atom       141         142         143         144         145         146         147         148         149         150
 IAtWgt=          16           1           1           1           1          12          12          12          12           1
 AtmWgt=  15.9949146   1.0078250   1.0078250   1.0078250   1.0078250  12.0000000  12.0000000  12.0000000  12.0000000   1.0078250
 NucSpn=           0           1           1           1           1           0           0           0           0           1
 AtZEff=   0.0000000   0.0000000   0.0000000   0.0000000   0.0000000   0.0000000   0.0000000   0.0000000   0.0000000   0.0000000
 NQMom=    0.0000000   0.0000000   0.0000000   0.0000000   0.0000000   0.0000000   0.0000000   0.0000000   0.0000000   0.0000000
 NMagM=    0.0000000   2.7928460   2.7928460   2.7928460   2.7928460   0.0000000   0.0000000   0.0000000   0.0000000   2.7928460

  Atom       151         152         153         154         155         156         157         158         159         160
 IAtWgt=           1           1           1           1           1           1           1           1           1           1
 AtmWgt=   1.0078250   1.0078250   1.0078250   1.0078250   1.0078250   1.0078250   1.0078250   1.0078250   1.0078250   1.0078250
 NucSpn=           1           1           1           1           1           1           1           1           1           1
 AtZEff=   0.0000000   0.0000000   0.0000000   0.0000000   0.0000000   0.0000000   0.0000000   0.0000000   0.0000000   0.0000000
 NQMom=    0.0000000   0.0000000   0.0000000   0.0000000   0.0000000   0.0000000   0.0000000   0.0000000   0.0000000   0.0000000
 NMagM=    2.7928460   2.7928460   2.7928460   2.7928460   2.7928460   2.7928460   2.7928460   2.7928460   2.7928460   2.7928460

  Atom       161
 IAtWgt=           1
 AtmWgt=   1.0078250
 NucSpn=           1
 AtZEff=   0.0000000
 NQMom=    0.0000000
 NMagM=    2.7928460
 Leave Link  101 at Fri Aug  8 04:11:25 2014, MaxMem= 2147483648 cpu:       4.5
 (Enter /opt/g09/l103.exe)

 GradGradGradGradGradGradGradGradGradGradGradGradGradGradGradGradGradGrad
 Berny optimization.
 Initialization pass.
                           ----------------------------
                           !    Initial Parameters    !
                           ! (Angstroms and Degrees)  !
 --------------------------                            --------------------------
 ! Name  Definition              Value          Derivative Info.                !
 --------------------------------------------------------------------------------
 ! R1    R(1,2)                  1.5308         estimate D2E/DX2                !
 ! R2    R(1,5)                  1.5312         estimate D2E/DX2                !
 ! R3    R(1,6)                  1.5299         estimate D2E/DX2                !
 ! R4    R(1,9)                  1.5378         estimate D2E/DX2                !
 ! R5    R(2,3)                  1.4102         estimate D2E/DX2                !
 ! R6    R(2,18)                 1.3862         estimate D2E/DX2                !
 ! R7    R(3,4)                  1.4595         estimate D2E/DX2                !
 ! R8    R(3,21)                 1.3988         estimate D2E/DX2                !
 ! R9    R(4,5)                  1.4099         estimate D2E/DX2                !
 ! R10   R(4,14)                 1.4005         estimate D2E/DX2                !
 ! R11   R(5,17)                 1.388          estimate D2E/DX2                !
 ! R12   R(6,7)                  1.4135         estimate D2E/DX2                !
 ! R13   R(6,10)                 1.3853         estimate D2E/DX2                !
 ! R14   R(7,8)                  1.4577         estimate D2E/DX2                !
 ! R15   R(7,13)                 1.3973         estimate D2E/DX2                !
 ! R16   R(8,9)                  1.4105         estimate D2E/DX2                !
 ! R17   R(8,22)                 1.3976         estimate D2E/DX2                !
 ! R18   R(9,25)                 1.3845         estimate D2E/DX2                !
 ! R19   R(10,11)                1.4099         estimate D2E/DX2                !
 ! R20   R(10,89)                1.0902         estimate D2E/DX2                !
 ! R21   R(11,12)                1.4061         estimate D2E/DX2                !
 ! R22   R(11,26)                1.4175         estimate D2E/DX2                !
 ! R23   R(12,13)                1.3931         estimate D2E/DX2                !
 ! R24   R(12,87)                1.0898         estimate D2E/DX2                !
 ! R25   R(13,86)                1.0909         estimate D2E/DX2                !
 ! R26   R(14,15)                1.3915         estimate D2E/DX2                !
 ! R27   R(14,82)                1.0909         estimate D2E/DX2                !
 ! R28   R(15,16)                1.4067         estimate D2E/DX2                !
 ! R29   R(15,83)                1.0895         estimate D2E/DX2                !
 ! R30   R(16,17)                1.4055         estimate D2E/DX2                !
 ! R31   R(16,27)                1.4236         estimate D2E/DX2                !
 ! R32   R(17,88)                1.0905         estimate D2E/DX2                !
 ! R33   R(18,19)                1.4075         estimate D2E/DX2                !
 ! R34   R(18,79)                1.0901         estimate D2E/DX2                !
 ! R35   R(19,20)                1.409          estimate D2E/DX2                !
 ! R36   R(19,28)                1.4191         estimate D2E/DX2                !
 ! R37   R(20,21)                1.3919         estimate D2E/DX2                !
 ! R38   R(20,80)                1.0895         estimate D2E/DX2                !
 ! R39   R(21,81)                1.0907         estimate D2E/DX2                !
 ! R40   R(22,23)                1.3923         estimate D2E/DX2                !
 ! R41   R(22,84)                1.0909         estimate D2E/DX2                !
 ! R42   R(23,24)                1.4093         estimate D2E/DX2                !
 ! R43   R(23,85)                1.0895         estimate D2E/DX2                !
 ! R44   R(24,25)                1.4099         estimate D2E/DX2                !
 ! R45   R(24,29)                1.4119         estimate D2E/DX2                !
 ! R46   R(25,78)                1.0898         estimate D2E/DX2                !
 ! R47   R(26,34)                1.4197         estimate D2E/DX2                !
 ! R48   R(26,35)                1.4177         estimate D2E/DX2                !
 ! R49   R(27,36)                1.4105         estimate D2E/DX2                !
 ! R50   R(27,37)                1.4199         estimate D2E/DX2                !
 ! R51   R(28,31)                1.4173         estimate D2E/DX2                !
 ! R52   R(28,33)                1.4219         estimate D2E/DX2                !
 ! R53   R(29,30)                1.4212         estimate D2E/DX2                !
 ! R54   R(29,32)                1.418          estimate D2E/DX2                !
 ! R55   R(30,73)                1.4198         estimate D2E/DX2                !
 ! R56   R(30,77)                1.3984         estimate D2E/DX2                !
 ! R57   R(31,58)                1.4172         estimate D2E/DX2                !
 ! R58   R(31,62)                1.4054         estimate D2E/DX2                !
 ! R59   R(32,68)                1.4072         estimate D2E/DX2                !
 ! R60   R(32,72)                1.401          estimate D2E/DX2                !
 ! R61   R(33,63)                1.4001         estimate D2E/DX2                !
 ! R62   R(33,67)                1.4074         estimate D2E/DX2                !
 ! R63   R(34,43)                1.4004         estimate D2E/DX2                !
 ! R64   R(34,47)                1.4059         estimate D2E/DX2                !
 ! R65   R(35,48)                1.4004         estimate D2E/DX2                !
 ! R66   R(35,52)                1.4216         estimate D2E/DX2                !
 ! R67   R(36,38)                1.4035         estimate D2E/DX2                !
 ! R68   R(36,42)                1.4102         estimate D2E/DX2                !
 ! R69   R(37,53)                1.3981         estimate D2E/DX2                !
 ! R70   R(37,57)                1.4194         estimate D2E/DX2                !
 ! R71   R(38,39)                1.3967         estimate D2E/DX2                !
 ! R72   R(38,103)               1.0892         estimate D2E/DX2                !
 ! R73   R(39,40)                1.3994         estimate D2E/DX2                !
 ! R74   R(39,102)               1.0883         estimate D2E/DX2                !
 ! R75   R(40,41)                1.4018         estimate D2E/DX2                !
 ! R76   R(40,94)                1.3737         estimate D2E/DX2                !
 ! R77   R(41,42)                1.3885         estimate D2E/DX2                !
 ! R78   R(41,98)                1.0899         estimate D2E/DX2                !
 ! R79   R(42,99)                1.089          estimate D2E/DX2                !
 ! R80   R(43,44)                1.3962         estimate D2E/DX2                !
 ! R81   R(43,100)               1.0897         estimate D2E/DX2                !
 ! R82   R(44,45)                1.4006         estimate D2E/DX2                !
 ! R83   R(44,101)               1.0881         estimate D2E/DX2                !
 ! R84   R(45,46)                1.402          estimate D2E/DX2                !
 ! R85   R(45,95)                1.3723         estimate D2E/DX2                !
 ! R86   R(46,47)                1.3878         estimate D2E/DX2                !
 ! R87   R(46,104)               1.0894         estimate D2E/DX2                !
 ! R88   R(47,105)               1.0894         estimate D2E/DX2                !
 ! R89   R(48,49)                1.395          estimate D2E/DX2                !
 ! R90   R(48,145)               1.0898         estimate D2E/DX2                !
 ! R91   R(49,50)                1.3931         estimate D2E/DX2                !
 ! R92   R(49,144)               1.0895         estimate D2E/DX2                !
 ! R93   R(50,51)                1.3982         estimate D2E/DX2                !
 ! R94   R(50,143)               1.0898         estimate D2E/DX2                !
 ! R95   R(51,52)                1.3991         estimate D2E/DX2                !
 ! R96   R(51,142)               1.088          estimate D2E/DX2                !
 ! R97   R(52,141)               1.3625         estimate D2E/DX2                !
 ! R98   R(53,54)                1.3953         estimate D2E/DX2                !
 ! R99   R(53,137)               1.0903         estimate D2E/DX2                !
 ! R100  R(54,55)                1.3941         estimate D2E/DX2                !
 ! R101  R(54,136)               1.0894         estimate D2E/DX2                !
 ! R102  R(55,56)                1.3977         estimate D2E/DX2                !
 ! R103  R(55,138)               1.0899         estimate D2E/DX2                !
 ! R104  R(56,57)                1.4005         estimate D2E/DX2                !
 ! R105  R(56,139)               1.0883         estimate D2E/DX2                !
 ! R106  R(57,140)               1.3608         estimate D2E/DX2                !
 ! R107  R(58,59)                1.3972         estimate D2E/DX2                !
 ! R108  R(58,130)               1.3764         estimate D2E/DX2                !
 ! R109  R(59,60)                1.3942         estimate D2E/DX2                !
 ! R110  R(59,129)               1.09           estimate D2E/DX2                !
 ! R111  R(60,61)                1.3969         estimate D2E/DX2                !
 ! R112  R(60,128)               1.0896         estimate D2E/DX2                !
 ! R113  R(61,62)                1.3923         estimate D2E/DX2                !
 ! R114  R(61,126)               1.0899         estimate D2E/DX2                !
 ! R115  R(62,127)               1.0901         estimate D2E/DX2                !
 ! R116  R(63,64)                1.3969         estimate D2E/DX2                !
 ! R117  R(63,111)               1.0892         estimate D2E/DX2                !
 ! R118  R(64,65)                1.4001         estimate D2E/DX2                !
 ! R119  R(64,110)               1.088          estimate D2E/DX2                !
 ! R120  R(65,66)                1.4032         estimate D2E/DX2                !
 ! R121  R(65,92)                1.3696         estimate D2E/DX2                !
 ! R122  R(66,67)                1.3874         estimate D2E/DX2                !
 ! R123  R(66,112)               1.0896         estimate D2E/DX2                !
 ! R124  R(67,113)               1.0898         estimate D2E/DX2                !
 ! R125  R(68,69)                1.3878         estimate D2E/DX2                !
 ! R126  R(68,109)               1.0892         estimate D2E/DX2                !
 ! R127  R(69,70)                1.4023         estimate D2E/DX2                !
 ! R128  R(69,108)               1.0891         estimate D2E/DX2                !
 ! R129  R(70,71)                1.3996         estimate D2E/DX2                !
 ! R130  R(70,90)                1.372          estimate D2E/DX2                !
 ! R131  R(71,72)                1.3964         estimate D2E/DX2                !
 ! R132  R(71,107)               1.0881         estimate D2E/DX2                !
 ! R133  R(72,106)               1.0895         estimate D2E/DX2                !
 ! R134  R(73,74)                1.4            estimate D2E/DX2                !
 ! R135  R(73,131)               1.3612         estimate D2E/DX2                !
 ! R136  R(74,75)                1.398          estimate D2E/DX2                !
 ! R137  R(74,132)               1.0879         estimate D2E/DX2                !
 ! R138  R(75,76)                1.3937         estimate D2E/DX2                !
 ! R139  R(75,133)               1.09           estimate D2E/DX2                !
 ! R140  R(76,77)                1.3952         estimate D2E/DX2                !
 ! R141  R(76,134)               1.0894         estimate D2E/DX2                !
 ! R142  R(77,135)               1.0899         estimate D2E/DX2                !
 ! R143  R(90,91)                1.4217         estimate D2E/DX2                !
 ! R144  R(91,123)               1.1023         estimate D2E/DX2                !
 ! R145  R(91,124)               1.102          estimate D2E/DX2                !
 ! R146  R(91,125)               1.0949         estimate D2E/DX2                !
 ! R147  R(92,93)                1.4227         estimate D2E/DX2                !
 ! R148  R(93,114)               1.1021         estimate D2E/DX2                !
 ! R149  R(93,115)               1.102          estimate D2E/DX2                !
 ! R150  R(93,116)               1.0947         estimate D2E/DX2                !
 ! R151  R(94,97)                1.4209         estimate D2E/DX2                !
 ! R152  R(95,96)                1.4223         estimate D2E/DX2                !
 ! R153  R(96,117)               1.102          estimate D2E/DX2                !
 ! R154  R(96,118)               1.1021         estimate D2E/DX2                !
 ! R155  R(96,119)               1.0949         estimate D2E/DX2                !
 ! R156  R(97,120)               1.095          estimate D2E/DX2                !
 ! R157  R(97,121)               1.1026         estimate D2E/DX2                !
 ! R158  R(97,122)               1.1025         estimate D2E/DX2                !
 ! R159  R(130,148)              1.4349         estimate D2E/DX2                !
 ! R160  R(131,149)              1.4244         estimate D2E/DX2                !
 ! R161  R(140,146)              1.4251         estimate D2E/DX2                !
 ! R162  R(141,147)              1.4233         estimate D2E/DX2                !
 ! R163  R(146,150)              1.0946         estimate D2E/DX2                !
 ! R164  R(146,151)              1.1017         estimate D2E/DX2                !
 ! R165  R(146,152)              1.1            estimate D2E/DX2                !
 ! R166  R(147,159)              1.0944         estimate D2E/DX2                !
 ! R167  R(147,160)              1.102          estimate D2E/DX2                !
 ! R168  R(147,161)              1.1014         estimate D2E/DX2                !
 ! R169  R(148,156)              1.0951         estimate D2E/DX2                !
 ! R170  R(148,157)              1.0989         estimate D2E/DX2                !
 ! R171  R(148,158)              1.1022         estimate D2E/DX2                !
 ! R172  R(149,153)              1.1013         estimate D2E/DX2                !
 ! R173  R(149,154)              1.1015         estimate D2E/DX2                !
 ! R174  R(149,155)              1.0945         estimate D2E/DX2                !
 ! A1    A(2,1,5)              101.3288         estimate D2E/DX2                !
 ! A2    A(2,1,6)              114.0234         estimate D2E/DX2                !
 ! A3    A(2,1,9)              113.2126         estimate D2E/DX2                !
 ! A4    A(5,1,6)              116.6944         estimate D2E/DX2                !
 ! A5    A(5,1,9)              110.626          estimate D2E/DX2                !
 ! A6    A(6,1,9)              101.4366         estimate D2E/DX2                !
 ! A7    A(1,2,3)              110.4298         estimate D2E/DX2                !
 ! A8    A(1,2,18)             128.2131         estimate D2E/DX2                !
 ! A9    A(3,2,18)             121.3474         estimate D2E/DX2                !
 ! A10   A(2,3,4)              108.8167         estimate D2E/DX2                !
 ! A11   A(2,3,21)             119.4807         estimate D2E/DX2                !
 ! A12   A(4,3,21)             131.69           estimate D2E/DX2                !
 ! A13   A(3,4,5)              108.7461         estimate D2E/DX2                !
 ! A14   A(3,4,14)             131.5391         estimate D2E/DX2                !
 ! A15   A(5,4,14)             119.705          estimate D2E/DX2                !
 ! A16   A(1,5,4)              110.3889         estimate D2E/DX2                !
 ! A17   A(1,5,17)             128.3467         estimate D2E/DX2                !
 ! A18   A(4,5,17)             121.0513         estimate D2E/DX2                !
 ! A19   A(1,6,7)              110.3648         estimate D2E/DX2                !
 ! A20   A(1,6,10)             128.3903         estimate D2E/DX2                !
 ! A21   A(7,6,10)             121.1691         estimate D2E/DX2                !
 ! A22   A(6,7,8)              108.9587         estimate D2E/DX2                !
 ! A23   A(6,7,13)             119.5725         estimate D2E/DX2                !
 ! A24   A(8,7,13)             131.4603         estimate D2E/DX2                !
 ! A25   A(7,8,9)              108.9099         estimate D2E/DX2                !
 ! A26   A(7,8,22)             131.7996         estimate D2E/DX2                !
 ! A27   A(9,8,22)             119.2796         estimate D2E/DX2                !
 ! A28   A(1,9,8)              110.2885         estimate D2E/DX2                !
 ! A29   A(1,9,25)             128.0106         estimate D2E/DX2                !
 ! A30   A(8,9,25)             121.6257         estimate D2E/DX2                !
 ! A31   A(6,10,11)            119.1942         estimate D2E/DX2                !
 ! A32   A(6,10,89)            121.1521         estimate D2E/DX2                !
 ! A33   A(11,10,89)           119.6287         estimate D2E/DX2                !
 ! A34   A(10,11,12)           119.5934         estimate D2E/DX2                !
 ! A35   A(10,11,26)           120.1722         estimate D2E/DX2                !
 ! A36   A(12,11,26)           120.2221         estimate D2E/DX2                !
 ! A37   A(11,12,13)           121.0075         estimate D2E/DX2                !
 ! A38   A(11,12,87)           118.8901         estimate D2E/DX2                !
 ! A39   A(13,12,87)           120.1018         estimate D2E/DX2                !
 ! A40   A(7,13,12)            119.458          estimate D2E/DX2                !
 ! A41   A(7,13,86)            120.7718         estimate D2E/DX2                !
 ! A42   A(12,13,86)           119.7701         estimate D2E/DX2                !
 ! A43   A(4,14,15)            119.364          estimate D2E/DX2                !
 ! A44   A(4,14,82)            120.7773         estimate D2E/DX2                !
 ! A45   A(15,14,82)           119.8585         estimate D2E/DX2                !
 ! A46   A(14,15,16)           120.8725         estimate D2E/DX2                !
 ! A47   A(14,15,83)           120.4625         estimate D2E/DX2                !
 ! A48   A(16,15,83)           118.6605         estimate D2E/DX2                !
 ! A49   A(15,16,17)           119.8415         estimate D2E/DX2                !
 ! A50   A(15,16,27)           120.2822         estimate D2E/DX2                !
 ! A51   A(17,16,27)           119.8733         estimate D2E/DX2                !
 ! A52   A(5,17,16)            119.1481         estimate D2E/DX2                !
 ! A53   A(5,17,88)            121.0939         estimate D2E/DX2                !
 ! A54   A(16,17,88)           119.7257         estimate D2E/DX2                !
 ! A55   A(2,18,19)            119.1693         estimate D2E/DX2                !
 ! A56   A(2,18,79)            120.8664         estimate D2E/DX2                !
 ! A57   A(19,18,79)           119.9575         estimate D2E/DX2                !
 ! A58   A(18,19,20)           119.5185         estimate D2E/DX2                !
 ! A59   A(18,19,28)           120.682          estimate D2E/DX2                !
 ! A60   A(20,19,28)           119.7993         estimate D2E/DX2                !
 ! A61   A(19,20,21)           121.0144         estimate D2E/DX2                !
 ! A62   A(19,20,80)           119.0327         estimate D2E/DX2                !
 ! A63   A(21,20,80)           119.9509         estimate D2E/DX2                !
 ! A64   A(3,21,20)            119.4606         estimate D2E/DX2                !
 ! A65   A(3,21,81)            120.8403         estimate D2E/DX2                !
 ! A66   A(20,21,81)           119.699          estimate D2E/DX2                !
 ! A67   A(8,22,23)            119.5045         estimate D2E/DX2                !
 ! A68   A(8,22,84)            120.8491         estimate D2E/DX2                !
 ! A69   A(23,22,84)           119.6462         estimate D2E/DX2                !
 ! A70   A(22,23,24)           121.175          estimate D2E/DX2                !
 ! A71   A(22,23,85)           119.9415         estimate D2E/DX2                !
 ! A72   A(24,23,85)           118.8831         estimate D2E/DX2                !
 ! A73   A(23,24,25)           119.3031         estimate D2E/DX2                !
 ! A74   A(23,24,29)           119.7438         estimate D2E/DX2                !
 ! A75   A(25,24,29)           120.9304         estimate D2E/DX2                !
 ! A76   A(9,25,24)            119.1075         estimate D2E/DX2                !
 ! A77   A(9,25,78)            120.9832         estimate D2E/DX2                !
 ! A78   A(24,25,78)           119.8825         estimate D2E/DX2                !
 ! A79   A(11,26,34)           119.8932         estimate D2E/DX2                !
 ! A80   A(11,26,35)           119.9727         estimate D2E/DX2                !
 ! A81   A(34,26,35)           118.7167         estimate D2E/DX2                !
 ! A82   A(16,27,36)           120.957          estimate D2E/DX2                !
 ! A83   A(16,27,37)           118.4961         estimate D2E/DX2                !
 ! A84   A(36,27,37)           120.4122         estimate D2E/DX2                !
 ! A85   A(19,28,31)           119.8941         estimate D2E/DX2                !
 ! A86   A(19,28,33)           120.2484         estimate D2E/DX2                !
 ! A87   A(31,28,33)           118.9234         estimate D2E/DX2                !
 ! A88   A(24,29,30)           119.2528         estimate D2E/DX2                !
 ! A89   A(24,29,32)           121.904          estimate D2E/DX2                !
 ! A90   A(30,29,32)           118.6615         estimate D2E/DX2                !
 ! A91   A(29,30,73)           120.4043         estimate D2E/DX2                !
 ! A92   A(29,30,77)           120.749          estimate D2E/DX2                !
 ! A93   A(73,30,77)           118.8363         estimate D2E/DX2                !
 ! A94   A(28,31,58)           121.3039         estimate D2E/DX2                !
 ! A95   A(28,31,62)           120.4916         estimate D2E/DX2                !
 ! A96   A(58,31,62)           118.2044         estimate D2E/DX2                !
 ! A97   A(29,32,68)           121.414          estimate D2E/DX2                !
 ! A98   A(29,32,72)           120.2985         estimate D2E/DX2                !
 ! A99   A(68,32,72)           118.2698         estimate D2E/DX2                !
 ! A100  A(28,33,63)           121.5258         estimate D2E/DX2                !
 ! A101  A(28,33,67)           120.2064         estimate D2E/DX2                !
 ! A102  A(63,33,67)           118.267          estimate D2E/DX2                !
 ! A103  A(26,34,43)           120.5347         estimate D2E/DX2                !
 ! A104  A(26,34,47)           121.0759         estimate D2E/DX2                !
 ! A105  A(43,34,47)           118.3765         estimate D2E/DX2                !
 ! A106  A(26,35,48)           120.9125         estimate D2E/DX2                !
 ! A107  A(26,35,52)           120.6213         estimate D2E/DX2                !
 ! A108  A(48,35,52)           118.456          estimate D2E/DX2                !
 ! A109  A(27,36,38)           121.0767         estimate D2E/DX2                !
 ! A110  A(27,36,42)           121.0716         estimate D2E/DX2                !
 ! A111  A(38,36,42)           117.8497         estimate D2E/DX2                !
 ! A112  A(27,37,53)           121.3218         estimate D2E/DX2                !
 ! A113  A(27,37,57)           119.807          estimate D2E/DX2                !
 ! A114  A(53,37,57)           118.8603         estimate D2E/DX2                !
 ! A115  A(36,38,39)           121.339          estimate D2E/DX2                !
 ! A116  A(36,38,103)          119.4926         estimate D2E/DX2                !
 ! A117  A(39,38,103)          119.1681         estimate D2E/DX2                !
 ! A118  A(38,39,40)           120.173          estimate D2E/DX2                !
 ! A119  A(38,39,102)          118.7495         estimate D2E/DX2                !
 ! A120  A(40,39,102)          121.0726         estimate D2E/DX2                !
 ! A121  A(39,40,41)           118.9495         estimate D2E/DX2                !
 ! A122  A(39,40,94)           124.9284         estimate D2E/DX2                !
 ! A123  A(41,40,94)           116.1218         estimate D2E/DX2                !
 ! A124  A(40,41,42)           120.7457         estimate D2E/DX2                !
 ! A125  A(40,41,98)           118.7888         estimate D2E/DX2                !
 ! A126  A(42,41,98)           120.4596         estimate D2E/DX2                !
 ! A127  A(36,42,41)           120.933          estimate D2E/DX2                !
 ! A128  A(36,42,99)           119.6481         estimate D2E/DX2                !
 ! A129  A(41,42,99)           119.4188         estimate D2E/DX2                !
 ! A130  A(34,43,44)           121.2146         estimate D2E/DX2                !
 ! A131  A(34,43,100)          119.2025         estimate D2E/DX2                !
 ! A132  A(44,43,100)          119.5809         estimate D2E/DX2                !
 ! A133  A(43,44,45)           119.864          estimate D2E/DX2                !
 ! A134  A(43,44,101)          119.0461         estimate D2E/DX2                !
 ! A135  A(45,44,101)          121.0865         estimate D2E/DX2                !
 ! A136  A(44,45,46)           119.231          estimate D2E/DX2                !
 ! A137  A(44,45,95)           124.7986         estimate D2E/DX2                !
 ! A138  A(46,45,95)           115.9704         estimate D2E/DX2                !
 ! A139  A(45,46,47)           120.6008         estimate D2E/DX2                !
 ! A140  A(45,46,104)          119.063          estimate D2E/DX2                !
 ! A141  A(47,46,104)          120.3189         estimate D2E/DX2                !
 ! A142  A(34,47,46)           120.7103         estimate D2E/DX2                !
 ! A143  A(34,47,105)          119.5842         estimate D2E/DX2                !
 ! A144  A(46,47,105)          119.7043         estimate D2E/DX2                !
 ! A145  A(35,48,49)           121.5624         estimate D2E/DX2                !
 ! A146  A(35,48,145)          118.1388         estimate D2E/DX2                !
 ! A147  A(49,48,145)          120.2987         estimate D2E/DX2                !
 ! A148  A(48,49,50)           119.5689         estimate D2E/DX2                !
 ! A149  A(48,49,144)          119.9287         estimate D2E/DX2                !
 ! A150  A(50,49,144)          120.4976         estimate D2E/DX2                !
 ! A151  A(49,50,51)           120.0888         estimate D2E/DX2                !
 ! A152  A(49,50,143)          120.4885         estimate D2E/DX2                !
 ! A153  A(51,50,143)          119.4223         estimate D2E/DX2                !
 ! A154  A(50,51,52)           120.589          estimate D2E/DX2                !
 ! A155  A(50,51,142)          119.4783         estimate D2E/DX2                !
 ! A156  A(52,51,142)          119.9171         estimate D2E/DX2                !
 ! A157  A(35,52,51)           119.7135         estimate D2E/DX2                !
 ! A158  A(35,52,141)          116.1974         estimate D2E/DX2                !
 ! A159  A(51,52,141)          124.086          estimate D2E/DX2                !
 ! A160  A(37,53,54)           121.3579         estimate D2E/DX2                !
 ! A161  A(37,53,137)          118.0863         estimate D2E/DX2                !
 ! A162  A(54,53,137)          120.5553         estimate D2E/DX2                !
 ! A163  A(53,54,55)           119.4129         estimate D2E/DX2                !
 ! A164  A(53,54,136)          120.113          estimate D2E/DX2                !
 ! A165  A(55,54,136)          120.4697         estimate D2E/DX2                !
 ! A166  A(54,55,56)           120.4218         estimate D2E/DX2                !
 ! A167  A(54,55,138)          120.3125         estimate D2E/DX2                !
 ! A168  A(56,55,138)          119.2649         estimate D2E/DX2                !
 ! A169  A(55,56,57)           120.2847         estimate D2E/DX2                !
 ! A170  A(55,56,139)          119.5626         estimate D2E/DX2                !
 ! A171  A(57,56,139)          120.135          estimate D2E/DX2                !
 ! A172  A(37,57,56)           119.6468         estimate D2E/DX2                !
 ! A173  A(37,57,140)          115.9339         estimate D2E/DX2                !
 ! A174  A(56,57,140)          124.4062         estimate D2E/DX2                !
 ! A175  A(31,58,59)           119.8828         estimate D2E/DX2                !
 ! A176  A(31,58,130)          122.2684         estimate D2E/DX2                !
 ! A177  A(59,58,130)          117.776          estimate D2E/DX2                !
 ! A178  A(58,59,60)           120.9872         estimate D2E/DX2                !
 ! A179  A(58,59,129)          117.7427         estimate D2E/DX2                !
 ! A180  A(60,59,129)          121.2582         estimate D2E/DX2                !
 ! A181  A(59,60,61)           119.496          estimate D2E/DX2                !
 ! A182  A(59,60,128)          119.9685         estimate D2E/DX2                !
 ! A183  A(61,60,128)          120.5304         estimate D2E/DX2                !
 ! A184  A(60,61,62)           119.945          estimate D2E/DX2                !
 ! A185  A(60,61,126)          120.328          estimate D2E/DX2                !
 ! A186  A(62,61,126)          119.7203         estimate D2E/DX2                !
 ! A187  A(31,62,61)           121.3962         estimate D2E/DX2                !
 ! A188  A(31,62,127)          118.2559         estimate D2E/DX2                !
 ! A189  A(61,62,127)          120.347          estimate D2E/DX2                !
 ! A190  A(33,63,64)           121.137          estimate D2E/DX2                !
 ! A191  A(33,63,111)          119.4878         estimate D2E/DX2                !
 ! A192  A(64,63,111)          119.3742         estimate D2E/DX2                !
 ! A193  A(63,64,65)           120.0254         estimate D2E/DX2                !
 ! A194  A(63,64,110)          118.9216         estimate D2E/DX2                !
 ! A195  A(65,64,110)          121.0469         estimate D2E/DX2                !
 ! A196  A(64,65,66)           119.1977         estimate D2E/DX2                !
 ! A197  A(64,65,92)           124.8174         estimate D2E/DX2                !
 ! A198  A(66,65,92)           115.9849         estimate D2E/DX2                !
 ! A199  A(65,66,67)           120.4432         estimate D2E/DX2                !
 ! A200  A(65,66,112)          118.7776         estimate D2E/DX2                !
 ! A201  A(67,66,112)          120.7742         estimate D2E/DX2                !
 ! A202  A(33,67,66)           120.9184         estimate D2E/DX2                !
 ! A203  A(33,67,113)          119.4581         estimate D2E/DX2                !
 ! A204  A(66,67,113)          119.6208         estimate D2E/DX2                !
 ! A205  A(32,68,69)           120.6176         estimate D2E/DX2                !
 ! A206  A(32,68,109)          120.0735         estimate D2E/DX2                !
 ! A207  A(69,68,109)          119.3089         estimate D2E/DX2                !
 ! A208  A(68,69,70)           120.7731         estimate D2E/DX2                !
 ! A209  A(68,69,108)          120.3749         estimate D2E/DX2                !
 ! A210  A(70,69,108)          118.8399         estimate D2E/DX2                !
 ! A211  A(69,70,71)           119.1357         estimate D2E/DX2                !
 ! A212  A(69,70,90)           116.0269         estimate D2E/DX2                !
 ! A213  A(71,70,90)           124.8374         estimate D2E/DX2                !
 ! A214  A(70,71,72)           119.8687         estimate D2E/DX2                !
 ! A215  A(70,71,107)          121.1553         estimate D2E/DX2                !
 ! A216  A(72,71,107)          118.973          estimate D2E/DX2                !
 ! A217  A(32,72,71)           121.3296         estimate D2E/DX2                !
 ! A218  A(32,72,106)          119.3411         estimate D2E/DX2                !
 ! A219  A(71,72,106)          119.3267         estimate D2E/DX2                !
 ! A220  A(30,73,74)           119.5904         estimate D2E/DX2                !
 ! A221  A(30,73,131)          116.0822         estimate D2E/DX2                !
 ! A222  A(74,73,131)          124.3217         estimate D2E/DX2                !
 ! A223  A(73,74,75)           120.3832         estimate D2E/DX2                !
 ! A224  A(73,74,132)          120.0751         estimate D2E/DX2                !
 ! A225  A(75,74,132)          119.5296         estimate D2E/DX2                !
 ! A226  A(74,75,76)           120.338          estimate D2E/DX2                !
 ! A227  A(74,75,133)          119.3087         estimate D2E/DX2                !
 ! A228  A(76,75,133)          120.3527         estimate D2E/DX2                !
 ! A229  A(75,76,77)           119.4482         estimate D2E/DX2                !
 ! A230  A(75,76,134)          120.5362         estimate D2E/DX2                !
 ! A231  A(77,76,134)          120.0101         estimate D2E/DX2                !
 ! A232  A(30,77,76)           121.3759         estimate D2E/DX2                !
 ! A233  A(30,77,135)          118.0505         estimate D2E/DX2                !
 ! A234  A(76,77,135)          120.5731         estimate D2E/DX2                !
 ! A235  A(70,90,91)           117.3053         estimate D2E/DX2                !
 ! A236  A(90,91,123)          111.5713         estimate D2E/DX2                !
 ! A237  A(90,91,124)          111.5871         estimate D2E/DX2                !
 ! A238  A(90,91,125)          105.9597         estimate D2E/DX2                !
 ! A239  A(123,91,124)         109.0595         estimate D2E/DX2                !
 ! A240  A(123,91,125)         109.266          estimate D2E/DX2                !
 ! A241  A(124,91,125)         109.3219         estimate D2E/DX2                !
 ! A242  A(65,92,93)           117.3907         estimate D2E/DX2                !
 ! A243  A(92,93,114)          111.5568         estimate D2E/DX2                !
 ! A244  A(92,93,115)          111.4849         estimate D2E/DX2                !
 ! A245  A(92,93,116)          105.9125         estimate D2E/DX2                !
 ! A246  A(114,93,115)         109.1687         estimate D2E/DX2                !
 ! A247  A(114,93,116)         109.3132         estimate D2E/DX2                !
 ! A248  A(115,93,116)         109.3273         estimate D2E/DX2                !
 ! A249  A(40,94,97)           117.217          estimate D2E/DX2                !
 ! A250  A(45,95,96)           117.3251         estimate D2E/DX2                !
 ! A251  A(95,96,117)          111.5201         estimate D2E/DX2                !
 ! A252  A(95,96,118)          111.5677         estimate D2E/DX2                !
 ! A253  A(95,96,119)          105.9818         estimate D2E/DX2                !
 ! A254  A(117,96,118)         109.1234         estimate D2E/DX2                !
 ! A255  A(117,96,119)         109.2857         estimate D2E/DX2                !
 ! A256  A(118,96,119)         109.2851         estimate D2E/DX2                !
 ! A257  A(94,97,120)          106.0016         estimate D2E/DX2                !
 ! A258  A(94,97,121)          111.6156         estimate D2E/DX2                !
 ! A259  A(94,97,122)          111.6115         estimate D2E/DX2                !
 ! A260  A(120,97,121)         109.2549         estimate D2E/DX2                !
 ! A261  A(120,97,122)         109.2537         estimate D2E/DX2                !
 ! A262  A(121,97,122)         109.0265         estimate D2E/DX2                !
 ! A263  A(58,130,148)         115.1752         estimate D2E/DX2                !
 ! A264  A(73,131,149)         118.0362         estimate D2E/DX2                !
 ! A265  A(57,140,146)         118.1362         estimate D2E/DX2                !
 ! A266  A(52,141,147)         117.9823         estimate D2E/DX2                !
 ! A267  A(140,146,150)        105.5506         estimate D2E/DX2                !
 ! A268  A(140,146,151)        111.3975         estimate D2E/DX2                !
 ! A269  A(140,146,152)        111.6943         estimate D2E/DX2                !
 ! A270  A(150,146,151)        109.4045         estimate D2E/DX2                !
 ! A271  A(150,146,152)        109.176          estimate D2E/DX2                !
 ! A272  A(151,146,152)        109.5136         estimate D2E/DX2                !
 ! A273  A(141,147,159)        105.7928         estimate D2E/DX2                !
 ! A274  A(141,147,160)        111.5165         estimate D2E/DX2                !
 ! A275  A(141,147,161)        111.3825         estimate D2E/DX2                !
 ! A276  A(159,147,160)        109.495          estimate D2E/DX2                !
 ! A277  A(159,147,161)        109.2945         estimate D2E/DX2                !
 ! A278  A(160,147,161)        109.2805         estimate D2E/DX2                !
 ! A279  A(130,148,156)        106.2101         estimate D2E/DX2                !
 ! A280  A(130,148,157)        111.8988         estimate D2E/DX2                !
 ! A281  A(130,148,158)        110.3202         estimate D2E/DX2                !
 ! A282  A(156,148,157)        109.1063         estimate D2E/DX2                !
 ! A283  A(156,148,158)        109.6896         estimate D2E/DX2                !
 ! A284  A(157,148,158)        109.5459         estimate D2E/DX2                !
 ! A285  A(131,149,153)        111.4822         estimate D2E/DX2                !
 ! A286  A(131,149,154)        111.3546         estimate D2E/DX2                !
 ! A287  A(131,149,155)        105.6577         estimate D2E/DX2                !
 ! A288  A(153,149,154)        109.4504         estimate D2E/DX2                !
 ! A289  A(153,149,155)        109.1575         estimate D2E/DX2                !
 ! A290  A(154,149,155)        109.6502         estimate D2E/DX2                !
 ! D1    D(5,1,2,3)              3.6688         estimate D2E/DX2                !
 ! D2    D(5,1,2,18)          -175.1968         estimate D2E/DX2                !
 ! D3    D(6,1,2,3)            129.8901         estimate D2E/DX2                !
 ! D4    D(6,1,2,18)           -48.9755         estimate D2E/DX2                !
 ! D5    D(9,1,2,3)           -114.8097         estimate D2E/DX2                !
 ! D6    D(9,1,2,18)            66.3246         estimate D2E/DX2                !
 ! D7    D(2,1,5,4)             -5.3609         estimate D2E/DX2                !
 ! D8    D(2,1,5,17)           179.9734         estimate D2E/DX2                !
 ! D9    D(6,1,5,4)           -129.7959         estimate D2E/DX2                !
 ! D10   D(6,1,5,17)            55.5384         estimate D2E/DX2                !
 ! D11   D(9,1,5,4)            114.9648         estimate D2E/DX2                !
 ! D12   D(9,1,5,17)           -59.7009         estimate D2E/DX2                !
 ! D13   D(2,1,6,7)            121.3133         estimate D2E/DX2                !
 ! D14   D(2,1,6,10)           -55.5087         estimate D2E/DX2                !
 ! D15   D(5,1,6,7)           -120.9864         estimate D2E/DX2                !
 ! D16   D(5,1,6,10)            62.1915         estimate D2E/DX2                !
 ! D17   D(9,1,6,7)             -0.7214         estimate D2E/DX2                !
 ! D18   D(9,1,6,10)          -177.5434         estimate D2E/DX2                !
 ! D19   D(2,1,9,8)           -123.204          estimate D2E/DX2                !
 ! D20   D(2,1,9,25)            59.9467         estimate D2E/DX2                !
 ! D21   D(5,1,9,8)            123.8539         estimate D2E/DX2                !
 ! D22   D(5,1,9,25)           -52.9955         estimate D2E/DX2                !
 ! D23   D(6,1,9,8)             -0.6087         estimate D2E/DX2                !
 ! D24   D(6,1,9,25)          -177.4581         estimate D2E/DX2                !
 ! D25   D(1,2,3,4)             -0.838          estimate D2E/DX2                !
 ! D26   D(1,2,3,21)          -179.6915         estimate D2E/DX2                !
 ! D27   D(18,2,3,4)           178.1184         estimate D2E/DX2                !
 ! D28   D(18,2,3,21)           -0.7351         estimate D2E/DX2                !
 ! D29   D(1,2,18,19)          178.8077         estimate D2E/DX2                !
 ! D30   D(1,2,18,79)           -0.2453         estimate D2E/DX2                !
 ! D31   D(3,2,18,19)            0.0524         estimate D2E/DX2                !
 ! D32   D(3,2,18,79)         -179.0006         estimate D2E/DX2                !
 ! D33   D(2,3,4,5)             -2.7177         estimate D2E/DX2                !
 ! D34   D(2,3,4,14)           176.1089         estimate D2E/DX2                !
 ! D35   D(21,3,4,5)           175.9457         estimate D2E/DX2                !
 ! D36   D(21,3,4,14)           -5.2277         estimate D2E/DX2                !
 ! D37   D(2,3,21,20)            0.5746         estimate D2E/DX2                !
 ! D38   D(2,3,21,81)         -179.3126         estimate D2E/DX2                !
 ! D39   D(4,3,21,20)         -177.9721         estimate D2E/DX2                !
 ! D40   D(4,3,21,81)            2.1408         estimate D2E/DX2                !
 ! D41   D(3,4,5,1)              5.2035         estimate D2E/DX2                !
 ! D42   D(3,4,5,17)          -179.6787         estimate D2E/DX2                !
 ! D43   D(14,4,5,1)          -173.7854         estimate D2E/DX2                !
 ! D44   D(14,4,5,17)            1.3324         estimate D2E/DX2                !
 ! D45   D(3,4,14,15)         -178.9784         estimate D2E/DX2                !
 ! D46   D(3,4,14,82)            1.1609         estimate D2E/DX2                !
 ! D47   D(5,4,14,15)           -0.2576         estimate D2E/DX2                !
 ! D48   D(5,4,14,82)          179.8817         estimate D2E/DX2                !
 ! D49   D(1,5,17,16)          172.6128         estimate D2E/DX2                !
 ! D50   D(1,5,17,88)           -5.3168         estimate D2E/DX2                !
 ! D51   D(4,5,17,16)           -1.549          estimate D2E/DX2                !
 ! D52   D(4,5,17,88)         -179.4786         estimate D2E/DX2                !
 ! D53   D(1,6,7,8)              1.7612         estimate D2E/DX2                !
 ! D54   D(1,6,7,13)          -177.299          estimate D2E/DX2                !
 ! D55   D(10,6,7,8)           178.8503         estimate D2E/DX2                !
 ! D56   D(10,6,7,13)           -0.2098         estimate D2E/DX2                !
 ! D57   D(1,6,10,11)          176.2273         estimate D2E/DX2                !
 ! D58   D(1,6,10,89)           -1.9499         estimate D2E/DX2                !
 ! D59   D(7,6,10,11)           -0.2904         estimate D2E/DX2                !
 ! D60   D(7,6,10,89)         -178.4675         estimate D2E/DX2                !
 ! D61   D(6,7,8,9)             -2.1482         estimate D2E/DX2                !
 ! D62   D(6,7,8,22)           176.6094         estimate D2E/DX2                !
 ! D63   D(13,7,8,9)           176.7611         estimate D2E/DX2                !
 ! D64   D(13,7,8,22)           -4.4813         estimate D2E/DX2                !
 ! D65   D(6,7,13,12)            0.1986         estimate D2E/DX2                !
 ! D66   D(6,7,13,86)         -179.7135         estimate D2E/DX2                !
 ! D67   D(8,7,13,12)         -178.6153         estimate D2E/DX2                !
 ! D68   D(8,7,13,86)            1.4725         estimate D2E/DX2                !
 ! D69   D(7,8,9,1)              1.6841         estimate D2E/DX2                !
 ! D70   D(7,8,9,25)           178.7689         estimate D2E/DX2                !
 ! D71   D(22,8,9,1)          -177.2541         estimate D2E/DX2                !
 ! D72   D(22,8,9,25)           -0.1692         estimate D2E/DX2                !
 ! D73   D(7,8,22,23)         -178.4721         estimate D2E/DX2                !
 ! D74   D(7,8,22,84)            1.6641         estimate D2E/DX2                !
 ! D75   D(9,8,22,23)            0.1803         estimate D2E/DX2                !
 ! D76   D(9,8,22,84)         -179.6835         estimate D2E/DX2                !
 ! D77   D(1,9,25,24)          176.2278         estimate D2E/DX2                !
 ! D78   D(1,9,25,78)           -1.8859         estimate D2E/DX2                !
 ! D79   D(8,9,25,24)           -0.3012         estimate D2E/DX2                !
 ! D80   D(8,9,25,78)         -178.415          estimate D2E/DX2                !
 ! D81   D(6,10,11,12)           0.7945         estimate D2E/DX2                !
 ! D82   D(6,10,11,26)        -177.9274         estimate D2E/DX2                !
 ! D83   D(89,10,11,12)        178.9999         estimate D2E/DX2                !
 ! D84   D(89,10,11,26)          0.278          estimate D2E/DX2                !
 ! D85   D(10,11,12,13)         -0.817          estimate D2E/DX2                !
 ! D86   D(10,11,12,87)        179.4631         estimate D2E/DX2                !
 ! D87   D(26,11,12,13)        177.9043         estimate D2E/DX2                !
 ! D88   D(26,11,12,87)         -1.8156         estimate D2E/DX2                !
 ! D89   D(10,11,26,34)        -47.1401         estimate D2E/DX2                !
 ! D90   D(10,11,26,35)        146.6178         estimate D2E/DX2                !
 ! D91   D(12,11,26,34)        134.1461         estimate D2E/DX2                !
 ! D92   D(12,11,26,35)        -32.096          estimate D2E/DX2                !
 ! D93   D(11,12,13,7)           0.3148         estimate D2E/DX2                !
 ! D94   D(11,12,13,86)       -179.7721         estimate D2E/DX2                !
 ! D95   D(87,12,13,7)        -179.9687         estimate D2E/DX2                !
 ! D96   D(87,12,13,86)         -0.0556         estimate D2E/DX2                !
 ! D97   D(4,14,15,16)          -0.5643         estimate D2E/DX2                !
 ! D98   D(4,14,15,83)        -179.7848         estimate D2E/DX2                !
 ! D99   D(82,14,15,16)        179.2978         estimate D2E/DX2                !
 ! D100  D(82,14,15,83)          0.0772         estimate D2E/DX2                !
 ! D101  D(14,15,16,17)          0.3413         estimate D2E/DX2                !
 ! D102  D(14,15,16,27)        179.7126         estimate D2E/DX2                !
 ! D103  D(83,15,16,17)        179.5757         estimate D2E/DX2                !
 ! D104  D(83,15,16,27)         -1.0531         estimate D2E/DX2                !
 ! D105  D(15,16,17,5)           0.7131         estimate D2E/DX2                !
 ! D106  D(15,16,17,88)        178.6716         estimate D2E/DX2                !
 ! D107  D(27,16,17,5)        -178.6607         estimate D2E/DX2                !
 ! D108  D(27,16,17,88)         -0.7023         estimate D2E/DX2                !
 ! D109  D(15,16,27,36)        -55.381          estimate D2E/DX2                !
 ! D110  D(15,16,27,37)        128.8211         estimate D2E/DX2                !
 ! D111  D(17,16,27,36)        123.99           estimate D2E/DX2                !
 ! D112  D(17,16,27,37)        -51.8079         estimate D2E/DX2                !
 ! D113  D(2,18,19,20)           0.773          estimate D2E/DX2                !
 ! D114  D(2,18,19,28)        -179.0761         estimate D2E/DX2                !
 ! D115  D(79,18,19,20)        179.8347         estimate D2E/DX2                !
 ! D116  D(79,18,19,28)         -0.0143         estimate D2E/DX2                !
 ! D117  D(18,19,20,21)         -0.936          estimate D2E/DX2                !
 ! D118  D(18,19,20,80)        179.5797         estimate D2E/DX2                !
 ! D119  D(28,19,20,21)        178.9144         estimate D2E/DX2                !
 ! D120  D(28,19,20,80)         -0.5699         estimate D2E/DX2                !
 ! D121  D(18,19,28,31)        -32.2127         estimate D2E/DX2                !
 ! D122  D(18,19,28,33)        136.6104         estimate D2E/DX2                !
 ! D123  D(20,19,28,31)        147.9387         estimate D2E/DX2                !
 ! D124  D(20,19,28,33)        -43.2383         estimate D2E/DX2                !
 ! D125  D(19,20,21,3)           0.2531         estimate D2E/DX2                !
 ! D126  D(19,20,21,81)       -179.8584         estimate D2E/DX2                !
 ! D127  D(80,20,21,3)         179.7327         estimate D2E/DX2                !
 ! D128  D(80,20,21,81)         -0.3788         estimate D2E/DX2                !
 ! D129  D(8,22,23,24)           0.2808         estimate D2E/DX2                !
 ! D130  D(8,22,23,85)        -179.9338         estimate D2E/DX2                !
 ! D131  D(84,22,23,24)       -179.8538         estimate D2E/DX2                !
 ! D132  D(84,22,23,85)         -0.0684         estimate D2E/DX2                !
 ! D133  D(22,23,24,25)         -0.7511         estimate D2E/DX2                !
 ! D134  D(22,23,24,29)        177.5303         estimate D2E/DX2                !
 ! D135  D(85,23,24,25)        179.4612         estimate D2E/DX2                !
 ! D136  D(85,23,24,29)         -2.2573         estimate D2E/DX2                !
 ! D137  D(23,24,25,9)           0.7501         estimate D2E/DX2                !
 ! D138  D(23,24,25,78)        178.8851         estimate D2E/DX2                !
 ! D139  D(29,24,25,9)        -177.5104         estimate D2E/DX2                !
 ! D140  D(29,24,25,78)          0.6246         estimate D2E/DX2                !
 ! D141  D(23,24,29,30)        -31.5998         estimate D2E/DX2                !
 ! D142  D(23,24,29,32)        143.4335         estimate D2E/DX2                !
 ! D143  D(25,24,29,30)        146.6531         estimate D2E/DX2                !
 ! D144  D(25,24,29,32)        -38.3136         estimate D2E/DX2                !
 ! D145  D(11,26,34,43)        143.8201         estimate D2E/DX2                !
 ! D146  D(11,26,34,47)        -37.5083         estimate D2E/DX2                !
 ! D147  D(35,26,34,43)        -49.7661         estimate D2E/DX2                !
 ! D148  D(35,26,34,47)        128.9055         estimate D2E/DX2                !
 ! D149  D(11,26,35,48)        125.994          estimate D2E/DX2                !
 ! D150  D(11,26,35,52)        -55.1833         estimate D2E/DX2                !
 ! D151  D(34,26,35,48)        -40.4088         estimate D2E/DX2                !
 ! D152  D(34,26,35,52)        138.414          estimate D2E/DX2                !
 ! D153  D(16,27,36,38)        156.1036         estimate D2E/DX2                !
 ! D154  D(16,27,36,42)        -24.4183         estimate D2E/DX2                !
 ! D155  D(37,27,36,38)        -28.1788         estimate D2E/DX2                !
 ! D156  D(37,27,36,42)        151.2993         estimate D2E/DX2                !
 ! D157  D(16,27,37,53)        117.7947         estimate D2E/DX2                !
 ! D158  D(16,27,37,57)        -63.423          estimate D2E/DX2                !
 ! D159  D(36,27,37,53)        -58.0269         estimate D2E/DX2                !
 ! D160  D(36,27,37,57)        120.7554         estimate D2E/DX2                !
 ! D161  D(19,28,31,58)        -53.2629         estimate D2E/DX2                !
[...]
 Alpha virt. eigenvalues --    2.30446   2.30970   2.31106   2.31233   2.31502
 Alpha virt. eigenvalues --    2.31685   2.31958   2.32255   2.32273   2.32533
 Alpha virt. eigenvalues --    2.32639   2.32959   2.33178   2.33660   2.33997
 Alpha virt. eigenvalues --    2.34377   2.34679   2.35083   2.35356   2.35821
 Alpha virt. eigenvalues --    2.36192   2.36739   2.37277   2.37471   2.37657
 Alpha virt. eigenvalues --    2.37872   2.38089   2.38284   2.39280   2.39552
 Alpha virt. eigenvalues --    2.39818   2.39896   2.40538   2.40886   2.41030
 Alpha virt. eigenvalues --    2.41839   2.42583   2.43105   2.43417   2.43717
 Alpha virt. eigenvalues --    2.44247   2.45262   2.45821   2.46427   2.47182
 Alpha virt. eigenvalues --    2.49292   2.49864   2.50103   2.51023   2.51396
 Alpha virt. eigenvalues --    2.51687   2.52034   2.52321   2.52686   2.53233
 Alpha virt. eigenvalues --    2.53510   2.54332   2.54710   2.54952   2.55199
 Alpha virt. eigenvalues --    2.55305   2.55664   2.55881   2.56380   2.56451
 Alpha virt. eigenvalues --    2.56707   2.57686   2.58012   2.58346   2.58511
 Alpha virt. eigenvalues --    2.58986   2.59668   2.59677   2.59955   2.60773
 Alpha virt. eigenvalues --    2.61972   2.62404   2.62754   2.63289   2.63900
 Alpha virt. eigenvalues --    2.64256   2.64528   2.64999   2.65119   2.65295
 Alpha virt. eigenvalues --    2.65472   2.65891   2.66307   2.66494   2.66608
 Alpha virt. eigenvalues --    2.67064   2.67226   2.67545   2.67615   2.67704
 Alpha virt. eigenvalues --    2.68023   2.68360   2.68478   2.68702   2.69260
 Alpha virt. eigenvalues --    2.69427   2.69563   2.69865   2.70251   2.70710
 Alpha virt. eigenvalues --    2.71102   2.71288   2.71745   2.72398   2.72776
 Alpha virt. eigenvalues --    2.72966   2.73606   2.73857   2.74200   2.74422
 Alpha virt. eigenvalues --    2.74639   2.75072   2.75214   2.75604   2.75889
 Alpha virt. eigenvalues --    2.76690   2.76807   2.76937   2.77572   2.77891
 Alpha virt. eigenvalues --    2.78518   2.78666   2.78825   2.79260   2.79678
 Alpha virt. eigenvalues --    2.81002   2.81360   2.81593   2.82101   2.82537
 Alpha virt. eigenvalues --    2.83074   2.83834   2.84339   2.84821   2.85877
 Alpha virt. eigenvalues --    2.85978   2.86525   2.86931   2.87532   2.87623
 Alpha virt. eigenvalues --    2.88749   2.89209   2.89449   2.89754   2.90907
 Alpha virt. eigenvalues --    2.91216   2.91789   2.92284   2.92301   2.93532
 Alpha virt. eigenvalues --    2.94697   2.95119   2.96629   2.97492   2.97945
 Alpha virt. eigenvalues --    2.99016   2.99397   2.99628   2.99729   3.00655
 Alpha virt. eigenvalues --    3.00730   3.01474   3.01587   3.02184   3.02394
 Alpha virt. eigenvalues --    3.03327   3.03934   3.05142   3.05594   3.05880
 Alpha virt. eigenvalues --    3.07036   3.08678   3.09510   3.10648   3.12008
 Alpha virt. eigenvalues --    3.13584   3.15012   3.18569   3.22341   3.23109
 Alpha virt. eigenvalues --    3.24743   3.25868   3.26653   3.27588   3.27964
 Alpha virt. eigenvalues --    3.28873   3.32229   3.33612   3.37759   3.39616
 Alpha virt. eigenvalues --    3.43136   3.43614   3.43621   3.43934   3.44407
 Alpha virt. eigenvalues --    3.45173   3.45199   3.45968   3.53246   3.53801
 Alpha virt. eigenvalues --    4.05622   4.05871   4.06764   4.06881   4.06951
 Alpha virt. eigenvalues --    4.07464   4.07605   4.08493   4.10080   4.10156
 Alpha virt. eigenvalues --    4.10337   4.10418   4.10512   4.10609   4.12237
 Alpha virt. eigenvalues --    4.12699   4.12922   4.13394   4.13432   4.14021
 Alpha virt. eigenvalues --    4.14235   4.14544   4.14958   4.15211   4.15755
 Alpha virt. eigenvalues --    4.16360   4.16811   4.16955   4.17313   4.17444
 Alpha virt. eigenvalues --    4.17999   4.18598   4.19089   4.21671   4.22059
 Alpha virt. eigenvalues --    4.22357   4.22959   4.23496   4.24165   4.24445
 Alpha virt. eigenvalues --    4.24559   4.24676   4.24785   4.25290   4.26396
 Alpha virt. eigenvalues --    4.26955   4.27494   4.27591   4.32636   4.33376
 Alpha virt. eigenvalues --    4.33801   4.34375   4.34915   4.35802   4.36228
 Alpha virt. eigenvalues --    4.36653   4.36727   4.37267   4.37879   4.38107
 Alpha virt. eigenvalues --    4.39622   4.40005   4.40256   4.40387   4.41254
 Alpha virt. eigenvalues --    4.41788   4.42698   4.42899   4.46562   4.48152
 Alpha virt. eigenvalues --    4.48645   4.49470   4.50755   4.51870   4.54629
 Alpha virt. eigenvalues --    4.55837   4.56465   4.56827   4.58155   4.59197
 Alpha virt. eigenvalues --    4.65670   4.78212   4.79536   4.80146   4.80776
 Alpha virt. eigenvalues --    4.80992   4.84374   4.84903   4.87718   4.89553
 Alpha virt. eigenvalues --    4.90766   4.91793   4.92775
          Condensed to atoms (all electrons):
 Mulliken atomic charges:
              1
     1  C   -0.274411
     2  C    0.129192
     3  C    0.073143
     4  C    0.074375
     5  C    0.121774
     6  C    0.116733
     7  C    0.074802
     8  C    0.072365
     9  C    0.120056
    10  C   -0.226318
    11  C    0.313705
    12  C   -0.186791
    13  C   -0.207713
    14  C   -0.209028
    15  C   -0.140438
    16  C    0.269955
    17  C   -0.227083
    18  C   -0.240578
    19  C    0.308167
    20  C   -0.172398
    21  C   -0.202633
    22  C   -0.205162
    23  C   -0.188526
    24  C    0.331622
    25  C   -0.235732
    26  N   -0.647002
    27  N   -0.650713
    28  N   -0.664344
    29  N   -0.651714
    30  C    0.182737
    31  C    0.242930
    32  C    0.301109
    33  C    0.286125
    34  C    0.283231
    35  C    0.215018
    36  C    0.325310
    37  C    0.197542
    38  C   -0.186342
    39  C   -0.204585
    40  C    0.372083
    41  C   -0.187166
    42  C   -0.195825
    43  C   -0.167640
    44  C   -0.202270
    45  C    0.374130
    46  C   -0.188569
    47  C   -0.177075
    48  C   -0.174121
    49  C   -0.143919
    50  C   -0.134679
    51  C   -0.209513
    52  C    0.364242
    53  C   -0.153873
    54  C   -0.146129
    55  C   -0.133522
    56  C   -0.216979
    57  C    0.369546
    58  C    0.331576
    59  C   -0.175580
    60  C   -0.136668
    61  C   -0.135641
    62  C   -0.183640
    63  C   -0.192876
    64  C   -0.207461
    65  C    0.377236
    66  C   -0.182682
    67  C   -0.168094
    68  C   -0.183034
    69  C   -0.190487
    70  C    0.375003
    71  C   -0.204879
    72  C   -0.178752
    73  C    0.373657
    74  C   -0.210469
    75  C   -0.131630
    76  C   -0.146072
    77  C   -0.157596
    78  H    0.151791
    79  H    0.151075
    80  H    0.134072
    81  H    0.127794
    82  H    0.126243
    83  H    0.137986
    84  H    0.123970
    85  H    0.135586
    86  H    0.125375
    87  H    0.135099
    88  H    0.142932
    89  H    0.144579
    90  O   -0.514755
    91  C   -0.210457
    92  O   -0.510613
    93  C   -0.212952
    94  O   -0.514225
    95  O   -0.521076
    96  C   -0.213044
    97  C   -0.209729
    98  H    0.135868
    99  H    0.152579
   100  H    0.138846
   101  H    0.128856
   102  H    0.126372
   103  H    0.137921
   104  H    0.144325
   105  H    0.151260
   106  H    0.138383
   107  H    0.126925
   108  H    0.147257
   109  H    0.155838
   110  H    0.133092
   111  H    0.153843
   112  H    0.138948
   113  H    0.140178
   114  H    0.150584
   115  H    0.148980
   116  H    0.168398
   117  H    0.151352
   118  H    0.150054
   119  H    0.165021
   120  H    0.164158
   121  H    0.145447
   122  H    0.147227
   123  H    0.147127
   124  H    0.148445
   125  H    0.163162
   126  H    0.127697
   127  H    0.140968
   128  H    0.130416
   129  H    0.142741
   130  O   -0.524769
   131  O   -0.501641
   132  H    0.133327
   133  H    0.126432
   134  H    0.125593
   135  H    0.141064
   136  H    0.126566
   137  H    0.137548
   138  H    0.129193
   139  H    0.143259
   140  O   -0.503449
   141  O   -0.502701
   142  H    0.131240
   143  H    0.125067
   144  H    0.124745
   145  H    0.141342
   146  C   -0.231164
   147  C   -0.220882
   148  C   -0.215732
   149  C   -0.224010
   150  H    0.167026
   151  H    0.145968
   152  H    0.178033
   153  H    0.151437
   154  H    0.148564
   155  H    0.185221
   156  H    0.171258
   157  H    0.160217
   158  H    0.140299
   159  H    0.180551
   160  H    0.147303
   161  H    0.152161
 Sum of Mulliken atomic charges =   0.00000
 Mulliken charges with hydrogens summed into heavy atoms:
              1
     1  C   -0.274411
     2  C    0.129192
     3  C    0.073143
     4  C    0.074375
     5  C    0.121774
     6  C    0.116733
     7  C    0.074802
     8  C    0.072365
     9  C    0.120056
    10  C   -0.081739
    11  C    0.313705
    12  C   -0.051693
    13  C   -0.082338
    14  C   -0.082785
    15  C   -0.002452
    16  C    0.269955
    17  C   -0.084152
    18  C   -0.089503
    19  C    0.308167
    20  C   -0.038326
    21  C   -0.074838
    22  C   -0.081192
    23  C   -0.052940
    24  C    0.331622
    25  C   -0.083941
    26  N   -0.647002
    27  N   -0.650713
    28  N   -0.664344
    29  N   -0.651714
    30  C    0.182737
    31  C    0.242930
    32  C    0.301109
    33  C    0.286125
    34  C    0.283231
    35  C    0.215018
    36  C    0.325310
    37  C    0.197542
    38  C   -0.048421
    39  C   -0.078213
    40  C    0.372083
    41  C   -0.051298
    42  C   -0.043246
    43  C   -0.028795
    44  C   -0.073414
    45  C    0.374130
    46  C   -0.044244
    47  C   -0.025814
    48  C   -0.032779
    49  C   -0.019174
    50  C   -0.009612
    51  C   -0.078273
    52  C    0.364242
    53  C   -0.016325
    54  C   -0.019563
    55  C   -0.004328
    56  C   -0.073720
    57  C    0.369546
    58  C    0.331576
    59  C   -0.032839
    60  C   -0.006252
    61  C   -0.007944
    62  C   -0.042672
    63  C   -0.039033
    64  C   -0.074369
    65  C    0.377236
    66  C   -0.043734
    67  C   -0.027916
    68  C   -0.027196
    69  C   -0.043230
    70  C    0.375003
    71  C   -0.077955
    72  C   -0.040369
    73  C    0.373657
    74  C   -0.077142
    75  C   -0.005198
    76  C   -0.020478
    77  C   -0.016532
    90  O   -0.514755
    91  C    0.248278
    92  O   -0.510613
    93  C    0.255010
    94  O   -0.514225
    95  O   -0.521076
    96  C    0.253383
    97  C    0.247103
   130  O   -0.524769
   131  O   -0.501641
   140  O   -0.503449
   141  O   -0.502701
   146  C    0.259863
   147  C    0.259134
   148  C    0.256042
   149  C    0.261212
 Sum of Mulliken charges with hydrogens summed into heavy atoms =   0.00000
 Electronic spatial extent (au):  <R**2>=          97307.1305
 Charge=              0.0000 electrons
 Dipole moment (field-independent basis, Debye):
    X=             -1.8638    Y=              2.8080    Z=             -1.8435  Tot=              3.8415
 Quadrupole moment (field-independent basis, Debye-Ang):
   XX=           -464.5104   YY=           -487.5178   ZZ=           -499.7977
   XY=             -4.5801   XZ=              8.8013   YZ=            -12.7554
 Traceless Quadrupole moment (field-independent basis, Debye-Ang):
   XX=             19.4316   YY=             -3.5759   ZZ=            -15.8557
   XY=             -4.5801   XZ=              8.8013   YZ=            -12.7554
 Octapole moment (field-independent basis, Debye-Ang**2):
  XXX=             42.5765  YYY=            172.6721  ZZZ=            -85.7471  XYY=             62.8883
  XXY=            132.5190  XXZ=            -59.8058  XZZ=            -12.4893  YZZ=             15.4084
  YYZ=           -157.9501  XYZ=             92.3811
 Hexadecapole moment (field-independent basis, Debye-Ang**3):
 XXXX=         -56814.6812 YYYY=         -48454.4501 ZZZZ=         -16355.7679 XXXY=            341.9868
 XXXZ=            162.9249 YYYX=           -880.8799 YYYZ=           -644.1741 ZZZX=            143.4251
 ZZZY=           -134.2342 XXYY=         -17929.3442 XXZZ=         -12120.7679 YYZZ=         -10353.5898
 XXYZ=           -468.5141 YYXZ=           -241.4586 ZZXY=           -359.1737
 N-N= 1.697283655860D+04 E-N=-4.312075468175D+04  KE= 3.911036736590D+03
 Leave Link  601 at Fri Aug  8 09:31:07 2014, MaxMem= 2147483648 cpu:      50.3
 (Enter /opt/g09/l9999.exe)
 1\1\GINC-CHPC-SCANDIUM\FOpt\RB3LYP\6-31G(d)\C81H68N4O8\JARVIST\08-Aug-
 2014\0\\#p opt b3lyp/6-31g*\\Auto Spiro\\0,1\C,12.5348141121,10.515452
 7009,12.6906276439\C,11.2120222239,9.8679282601,12.2630226355\C,11.408
 1650098,8.5162744923,11.9250236291\C,12.8209071558,8.1810870366,12.126
 2309732\C,13.5052795271,9.3396105031,12.5414561147\C,12.8810881638,11.
 7603942271,11.8650097597\C,12.9757293613,12.8950886705,12.6976962331\C
 ,12.7645453683,12.4795102098,14.0858024817\C,12.498777135,11.095879600
 1,14.1113791668\C,13.0423919518,11.8608456091,10.4940171653\C,13.30585
 19529,13.1199974419,9.9228931509\C,13.3898598361,14.252588764,10.74906
 32114\C,13.2226602619,14.1461977331,12.1300503682\C,13.510992212,6.972
 1530669,11.9946238588\C,14.8740090265,6.9329222035,12.2771376392\C,15.
 5582382472,8.0885759264,12.6897110789\C,14.8664523914,9.3040348501,12.
 8144363248\C,9.9621903655,10.4608016856,12.1628343493\C,8.8751384675,9
 .6935313322,11.7124288426\C,9.0708087271,8.34288103,11.3696594143\C,10
 .3281636571,7.7533774941,11.4722185564\C,12.8003067449,13.1916839332,1
 5.2857744276\C,12.5619821044,12.5258631465,16.4862425916\C,12.29642630
 26,11.1434857787,16.5120401266\C,12.2700949623,10.4247829633,15.300703
 8464\N,13.4850079531,13.2321551255,8.5165902044\N,16.9489666769,8.0173
 569152,13.0116444354\N,7.5786802271,10.2738112482,11.5879829298\N,12.0
 73304402,10.4909097726,17.7481789636\C,12.801528978,10.9156772934,18.8
 962321574\C,7.1424471208,11.2154088423,12.5601277499\C,11.100151877,9.
 4656065015,17.8883521466\C,6.8661035614,10.1597479855,10.361191573\C,1
 4.3950749414,12.3607805469,7.8592777403\C,12.9684944892,14.3584202757,
 7.8233642581\C,17.3942762963,7.2194113688,14.0898413727\C,17.866965448
 8,8.8387880917,12.2984530072\C,18.7103723663,6.7370679843,14.138954898
 3\C,19.1612636017,5.9632483884,15.2106713284\C,18.2931447581,5.6351980
 757,16.2561091085\C,16.9733991967,6.1022424434,16.2118297287\C,16.5316
 236778,6.8877788253,15.1546169891\C,14.122260222,11.8718525331,6.57621
 21242\C,15.010415957,11.01076026,5.926907714\C,16.1857827911,10.608638
 8894,6.5695428561\C,16.4699332156,11.0987045121,7.8505495861\C,15.5921
 357059,11.9667121255,8.4826391439\C,13.8008791156,15.1819998181,7.0584
 638773\C,13.2939527413,16.2788206935,6.3595495741\C,11.9362638664,16.5
 762846459,6.4405967629\C,11.0830401135,15.7702860988,7.2007006506\C,11
 .58212281,14.6545475132,7.8793139781\C,18.5741025137,9.8559462934,12.9
 457001097\C,19.4964855581,10.6488914195,12.261423778\C,19.7108428791,1
 0.4275891669,10.9027946639\C,19.018936896,9.4154087837,10.2314649763\C
 ,18.1007901335,8.6121223076,10.9196089698\C,7.1096336214,10.8727832071
 ,13.9309722085\C,6.7207276975,11.8173952645,14.8816470416\C,6.32640834
 31,13.0978349725,14.4941896034\C,6.3212983269,13.4353633883,13.1397451
 65\C,6.7350931196,12.5059321812,12.1877068424\C,7.5293173748,10.099935
 1936,9.1296914401\C,6.8202362989,9.96694946,7.932276366\C,5.4231810102
 ,9.9163852588,7.9471888698\C,4.7501587551,9.9902085376,9.1758713888\C,
 5.459698298,10.0996556222,10.3626832433\C,9.8918706297,9.5022452194,17
 .1678688788\C,8.9408053901,8.5048874977,17.3259522614\C,9.1533533811,7
 .4496928159,18.2231726823\C,10.3457154502,7.405607972,18.9517150918\C,
 11.3105252359,8.3998975655,18.7719232634\C,14.2121401687,10.7852159914
 ,18.9311544289\C,14.9189603661,11.2176959109,20.0587751404\C,14.235682
 0441,11.7465714822,21.1576325388\C,12.8469214646,11.8531009405,21.1416
 514933\C,12.1416976381,11.4446248345,20.0081517876\H,12.0828763846,9.3
 559299989,15.3121753893\H,9.8194443146,11.506607313,12.4169596595\H,8.
 2244811947,7.7603519568,11.0187343844\H,10.4569489885,6.7070260486,11.
 2068758542\H,12.9965966374,6.0695830868,11.6740920479\H,15.4322928838,
 6.0077419417,12.1771552601\H,13.0007587124,14.2603527697,15.2941307284
 \H,12.5750010873,13.0769647379,17.4210180283\H,13.29715452,15.03484156
 74,12.7520582473\H,13.5948154101,15.2194023181,10.2994873483\H,15.3953
 965621,10.1923982905,13.1474460358\H,12.9564406676,10.9891956193,9.852
 5151491\O,8.1444501791,6.5248399516,18.3108248963\C,8.3182380605,5.437
 9375886,19.2008864412\O,4.6301756957,9.7961870313,6.838559505\C,5.2633
 369059,9.7168559351,5.5734105445\O,18.6285566468,4.8791085156,17.35123
 50433\O,17.113195816,9.7424794364,6.043616584\C,16.8798280707,9.230449
 3382,4.7429269101\C,19.9490128262,4.3760040563,17.4269435604\H,16.3034
 214485,5.8468922768,17.0274278499\H,15.5076217341,7.2456084873,15.1489
 203086\H,13.2025965187,12.1657301832,6.0797027074\H,14.7616623781,10.6
 495368814,4.9352763329\H,20.1881799726,5.6147493411,15.2062879757\H,19
 .3953557329,6.9690881687,13.3303286397\H,17.3919649484,10.7999132279,8
 .3379291923\H,15.8285294846,12.3406530712,9.473277146\H,12.2379846922,
 8.3468102133,19.3329485955\H,10.5473828624,6.600740729,19.6497982908\H
 ,8.0165808175,8.5432483173,16.7601858008\H,9.6978899718,10.3103357531,
 16.4709915537\H,7.3723481027,9.9175162603,7.0004350286\H,8.6130423058,
 10.1471603863,9.10231866\H,3.6654221364,9.9446238981,9.1772658429\H,4.
 9247547568,10.1460374772,11.3062180266\H,5.921571069,8.8401073163,5.50
 37436785\H,5.8478961052,10.6210374859,5.3551618699\H,4.4599625084,9.62
 26336529,4.8401926499\H,16.8272756859,10.0339018555,3.9958316404\H,15.
 9542291695,8.6403373708,4.6986936718\H,17.7297727555,8.5837144706,4.51
 56143014\H,20.0044687988,3.8110082642,18.3598645208\H,20.6925976962,5.
 1850971468,17.4506109473\H,20.1788055284,3.7070115586,16.5858554115\H,
 8.4328453021,5.7771276647,20.2398800211\H,9.188234249,4.8242497766,18.
 9289467581\H,7.4128830681,4.8326383348,19.1193822014\H,6.014840198,14.
 4283856041,12.8226871249\H,6.748365847,12.7703857251,11.1346219994\H,6
 .0186509065,13.8210663176,15.2439642061\H,6.7241925288,11.5187595504,1
 5.9258150666\O,7.507449724,9.6307042468,14.3735387969\O,14.7847989967,
 10.2199483276,17.8344530225\H,15.9988284646,11.1284543586,20.093669123
 8\H,14.8007230957,12.0698481421,22.0278098991\H,12.3142574533,12.26210
 11486,21.9952319093\H,11.0593215011,11.5268233154,19.9698354171\H,20.0
 324429525,11.4354448235,12.7844732309\H,18.3927762137,10.0093509512,14
 .0056834717\H,20.423108162,11.0370348394,10.3531224509\H,19.2136570072
 ,9.2426753751,9.1789178495\O,17.4089489176,7.5852193546,10.3570134873\
 O,10.8176997398,13.7927176229,8.6060777792\H,10.0255844064,16.00545498
 48,7.2438614947\H,11.5274783513,17.4331091684,5.9119916806\H,13.962052
 9885,16.9017954401,5.7718802914\H,14.8597648867,14.9451289445,7.016104
 7454\C,17.6289095744,7.2858477384,8.9850924468\C,9.4297732523,14.05455
 35583,8.7298382054\C,6.5986333646,8.5636420385,14.0898665228\C,16.1915
 052082,10.0298914126,17.8226797832\H,16.9846802834,6.4324905373,8.7655
 025339\H,18.6749933537,7.00678027,8.7997817979\H,17.3562550964,8.12297
 8797,8.3317653382\H,16.5198128014,9.4019078185,18.6612646065\H,16.7268
 826651,10.9880272774,17.8567752762\H,16.4148553615,9.5175323688,16.885
 6261285\H,7.044511014,7.6640316755,14.5187421009\H,6.4637319314,8.4261
 306927,13.0117839387\H,5.6232834318,8.7492794458,14.5593234362\H,9.029
 1489892,13.2464121442,9.3443070474\H,8.9282242461,14.0487825387,7.7526
 843934\H,9.243419748,15.0165996536,9.2250704736\\Version=EM64L-G09RevA
 .02\State=1-A\HF=-3948.2797831\RMSD=8.009e-09\RMSF=2.796e-06\Dipole=0.
 3929404,-0.4047889,-1.4021097\Quadrupole=-2.701115,-13.1604034,15.8615
 184,-8.3027888,5.9517417,1.148452\PG=C01 [X(C81H68N4O8)]\\@


 BE NOT THE FIRST BY WHOM THE NEW ARE TRIED,
 NOR YET THE THE LAST TO LAY THE OLD ASIDE.

                          -- ALEXANDER POPE
 Job cpu time:  5 days  7 hours 39 minutes 23.3 seconds.
 File lengths (MBytes):  RWF=   1450 Int=      0 D2E=      0 Chk=    144 Scr=      1
 Normal termination of Gaussian 09 at Fri Aug  8 09:31:07 2014.
