 Entering Gaussian System, Link 0=g09
 Input=b3lyp-631gs_opt/HF_8.com
 Output=b3lyp-631gs_opt/HF_8.log
 Initial command:
 /opt/g09/l1.exe /home/jarvist/super_spiro/Gau-12472.inp -scrdir=/home/jarvist/super_spiro/
 Default is to use a total of   8 processors:
                                8 via shared-memory
                                1 via Linda
 Entering Link 1 = /opt/g09/l1.exe PID=     12474.
  
 Copyright (c) 1988,1990,1992,1993,1995,1998,2003,2009, Gaussian, Inc.
                  All Rights Reserved.
  
 This is part of the Gaussian(R) 09 program.  It is based on
 the Gaussian(R) 03 system (copyright 2003, Gaussian, Inc.),
 the Gaussian(R) 98 system (copyright 1998, Gaussian, Inc.),
 the Gaussian(R) 94 system (copyright 1995, Gaussian, Inc.),
 the Gaussian 92(TM) system (copyright 1992, Gaussian, Inc.),
 the Gaussian 90(TM) system (copyright 1990, Gaussian, Inc.),
 the Gaussian 88(TM) system (copyright 1988, Gaussian, Inc.),
 the Gaussian 86(TM) system (copyright 1986, Carnegie Mellon
 University), and the Gaussian 82(TM) system (copyright 1983,
 Carnegie Mellon University). Gaussian is a federally registered
 trademark of Gaussian, Inc.
  
 This software contains proprietary and confidential information,
 including trade secrets, belonging to Gaussian, Inc.
  
 This software is provided under written license and may be
 used, copied, transmitted, or stored only in accord with that
 written license.
  
 The following legend is applicable only to US Government
 contracts under FAR:
  
                    RESTRICTED RIGHTS LEGEND
  
 Use, reproduction and disclosure by the US Government is
 subject to restrictions as set forth in subparagraphs (a)
 and (c) of the Commercial Computer Software - Restricted
 Rights clause in FAR 52.227-19.
  
 Gaussian, Inc.
 340 Quinnipiac St., Bldg. 40, Wallingford CT 06492
  
  
 ---------------------------------------------------------------
 Warning -- This program may not be used in any manner that
 competes with the business of Gaussian, Inc. or will provide
 assistance to any competitor of Gaussian, Inc.  The licensee
 of this program is prohibited from giving any competitor of
 Gaussian, Inc. access to this program.  By using this program,
 the user acknowledges that Gaussian, Inc. is engaged in the
 business of creating and licensing software in the field of
 computational chemistry and represents and warrants to the
 licensee that it is not a competitor of Gaussian, Inc. and that
 it will not use this program in any manner prohibited above.
 ---------------------------------------------------------------
  

 Cite this work as:
 Gaussian 09, Revision A.02,
 M. J. Frisch, G. W. Trucks, H. B. Schlegel, G. E. Scuseria, 
 M. A. Robb, J. R. Cheeseman, G. Scalmani, V. Barone, B. Mennucci, 
 G. A. Petersson, H. Nakatsuji, M. Caricato, X. Li, H. P. Hratchian, 
 A. F. Izmaylov, J. Bloino, G. Zheng, J. L. Sonnenberg, M. Hada, 
 M. Ehara, K. Toyota, R. Fukuda, J. Hasegawa, M. Ishida, T. Nakajima, 
 Y. Honda, O. Kitao, H. Nakai, T. Vreven, J. A. Montgomery, Jr., 
 J. E. Peralta, F. Ogliaro, M. Bearpark, J. J. Heyd, E. Brothers, 
 K. N. Kudin, V. N. Staroverov, R. Kobayashi, J. Normand, 
 K. Raghavachari, A. Rendell, J. C. Burant, S. S. Iyengar, J. Tomasi, 
 M. Cossi, N. Rega, J. M. Millam, M. Klene, J. E. Knox, J. B. Cross, 
 V. Bakken, C. Adamo, J. Jaramillo, R. Gomperts, R. E. Stratmann, 
 O. Yazyev, A. J. Austin, R. Cammi, C. Pomelli, J. W. Ochterski, 
 R. L. Martin, K. Morokuma, V. G. Zakrzewski, G. A. Voth, 
 P. Salvador, J. J. Dannenberg, S. Dapprich, A. D. Daniels, 
 O. Farkas, J. B. Foresman, J. V. Ortiz, J. Cioslowski, 
 and D. J. Fox, Gaussian, Inc., Wallingford CT, 2009.
 
 ******************************************
 Gaussian 09:  EM64L-G09RevA.02 11-Jun-2009
                 8-Aug-2014 
 ******************************************
 %mem=16GB
 %nprocs=24
 Will use up to   24 processors via shared memory.
 Default route:  MaxDisk=100GB
 -------------------
 #p opt b3lyp/6-31g*
 -------------------
 1/14=-1,18=20,19=15,26=3,38=1/1,3;
 2/9=110,12=2,17=6,18=5,40=1/2;
 3/5=1,6=6,7=1,11=2,16=1,25=1,30=1,71=1,74=-5/1,2,3;
 4//1;
 5/5=2,38=5/2;
 6/7=2,8=2,9=2,10=2,28=1/1;
 7//1,2,3,16;
 1/14=-1,18=20,19=15/3(2);
 2/9=110/2;
 99//99;
 2/9=110/2;
 3/5=1,6=6,7=1,11=2,16=1,25=1,30=1,71=1,74=-5/1,2,3;
 4/5=5,16=3/1;
 5/5=2,38=5/2;
 7//1,2,3,16;
 1/14=-1,18=20,19=15/3(-5);
 2/9=110/2;
 6/7=2,8=2,9=2,10=2,19=2,28=1/1;
 99/9=1/99;
 Leave Link    1 at Fri Aug  8 23:05:58 2014, MaxMem= 2147483648 cpu:       1.6
 (Enter /opt/g09/l101.exe)
 ----------
 Auto Spiro
 ----------
 Symbolic Z-matrix:
 Charge =  0 Multiplicity = 1
 C                     12.77898   11.70242   12.77821 
 C                     11.46522   11.00074   12.42275 
 C                     11.70391   9.65443   12.07253 
 C                     13.13207   9.38355   12.19116 
 C                     13.78821   10.56585   12.59656 
 C                     13.06926   12.92521   11.90296 
 C                     13.21299   14.07954   12.70121 
 C                     13.04629   13.70793   14.10106 
 C                     12.78889   12.32291   14.17782 
 C                     13.17108   12.98264   10.52247 
 C                     13.43583   14.22064   9.90177 
 C                     13.58842   15.37285   10.69997 
 C                     13.47222   15.3091   12.08573 
 C                     13.88411   8.22306   11.98114 
 C                     15.26395   8.25407   12.16678 
 C                     15.91866   9.4343    12.5752 
 C                     15.15837   10.60279   12.79246 
 C                     10.18986   11.54021   12.39455 
 C                     9.10548   10.72579   12.00936 
 C                     9.34247   9.38048   11.66234 
 C                     10.62837   8.8463    11.68815 
 C                     13.10447   14.4596   15.2797 
 C                     12.90611   13.83152   16.5056 
 C                     12.65947   12.44488   16.58391 
 C                     12.60234   11.68792   15.39523 
 N                     13.55109   14.31002   8.49432 
 N                     17.31922   9.44921   12.76311 
 N                     7.79261   11.25339   11.97028 
 N                     12.47337   11.82648   17.84181 
 C                     13.22804   12.25951   18.96631 
 C                     7.34617   12.12613   12.9981 
 C                     11.53983   10.76993   17.99734 
 C                     6.90932   10.89567   10.92059 
 C                     14.17684   13.27226   7.75596 
 C                     13.03449   15.44017   7.80823 
 C                     17.99028   8.30843   13.27317 
 C                     18.07873   10.5863   12.37356 
 C                     19.20347   7.87911   12.72034 
 C                     19.88648   6.77626   13.2396 
 C                     19.3485   6.06647   14.31958 
 C                     18.1277   6.4827    14.87304 
 C                     17.46505   7.59029   14.3644 
 C                     13.65714   12.84927   6.52633 
 C                     14.28362   11.84802   5.7808 
 C                     15.44158   11.23266   6.27062 
 C                     15.96345   11.64237   7.5072 
 C                     15.34663   12.65145   8.23281 
 C                     13.77434   16.04819   6.7798 
 C                     13.28434   17.14779   6.08323 
 C                     12.01465   17.68159   6.4135 
 C                     11.29221   17.09349   7.45669 
 C                     11.78702   15.98077   8.13972 
 C                     19.09426   11.0717   13.22067 
 C                     19.86014   12.17659   12.8595 
 C                     19.60448   12.8415   11.63047 
 C                     18.59035   12.35971   10.80445 
 C                     17.83825   11.23475   11.16277 
 C                     7.64681   11.87521   14.3371 
 C                     7.20644   12.75288   15.33443 
 C                     6.44369   13.87687   15.02125 
 C                     6.12589   14.12978   13.66039 
 C                     6.58642   13.26673   12.66993 
 C                     7.35867   10.81239   9.59596 
 C                     6.49392   10.45609   8.55891 
 C                     5.14512   10.19644   8.83078 
 C                     4.68351   10.28603   10.15256 
 C                     5.55322   10.62119   11.18092 
 C                     10.27959   10.81883   17.3714 
 C                     9.36284   9.79005   17.53507 
 C                     9.66789   8.68525   18.345 
 C                     10.91415   8.62807   18.98028 
 C                     11.83934   9.65815   18.7952 
 C                     14.59728   12.50582   18.86512 
 C                     15.31767   12.94787   19.98095 
 C                     14.69631   13.1275   21.21583 
 C                     13.30453   12.86628   21.32612 
 C                     12.58852   12.44986   20.20748 
 H                     12.41937   10.61452   15.4437 
 H                     10.01489   12.58288   12.66032 
 H                     8.49848   8.75528   11.37378 
 H                     10.78261   7.79983   11.42152 
 H                     13.40576   7.29751   11.65827 
 H                     15.85525   7.35655   11.99066 
 H                     13.29039   15.53408   15.2487 
 H                     12.94407   14.41225   17.42628 
 H                     13.59902   16.21574   12.67899 
 H                     13.80029   16.32507   10.2152 
 H                     15.65435   11.51944   13.11167 
 H                     13.04625   12.08664   9.91441 
 O                     8.69124   7.73014   18.44973 
 C                     8.97307   6.59142   19.25365 
 O                     4.20934   9.85183   7.8897 
 C                     4.64273   9.7653    6.53815 
 O                     19.92905   4.9701    14.90286 
 O                     16.13092   10.23801   5.62837 
 C                     15.62178   9.79177   4.37781 
 C                     21.16317   4.51762   14.36023 
 H                     17.7206   5.92936   15.71898 
 H                     16.52466   7.9104    14.81191 
 H                     12.75209   13.3161   6.13929 
 H                     13.8505   11.5517   4.82771 
 H                     20.82748   6.47605   12.78302 
 H                     19.6253   8.42044   11.87402 
 H                     16.86819   11.15993   7.87712 
 H                     15.76563   12.96453   9.18883 
 H                     12.81042   9.59962   19.28584 
 H                     11.18558   7.78245   19.609 
 H                     8.38769   9.82723   17.04922 
 H                     10.02757   11.67351   16.74398 
 H                     6.88333   10.3996   7.5444 
 H                     8.40404   11.02231   9.37214 
 H                     3.63436   10.07243   10.35645 
 H                     5.18485   10.6758   12.20476 
 H                     5.42109   8.99526   6.41024 
 H                     5.02857   10.73133   6.17374 
 H                     3.75858   9.48609   5.95588 
 H                     15.60353   10.60527   3.63464 
 H                     14.6078   9.3724    4.48007 
 H                     16.30506   9.00679   4.03805 
 H                     21.45525   3.64918   14.95942 
 H                     21.94543   5.29071   14.43357 
 H                     21.05485   4.21303   13.30659 
 H                     9.15996   6.87239   20.30306 
 H                     9.84049   6.03006   18.87059 
 H                     8.08152   5.95839   19.20193 
 O                     5.38061   15.24902   13.42688 
 H                     6.36171   13.46169   11.6241 
 H                     7.45346   12.53723   16.37221 
 H                     8.23183   10.99695   14.60541 
 H                     15.10589   12.36214   17.91338 
 H                     16.384    13.13683   19.87666 
 O                     12.76292   13.06736   22.56257 
 H                     11.51996   12.26147   20.27861 
 O                     20.86192   12.70664   13.61972 
 H                     19.27134   10.56525   14.16649 
 H                     18.38429   12.8513   9.85564 
 H                     17.05661   10.86847   10.49907 
 H                     11.19684   15.53084   8.93648 
 H                     10.31296   17.48174   7.72934 
 O                     14.03917   17.6353   5.04102 
 H                     14.75316   15.66169   6.49907 
 O                     5.95946   14.77978   15.92518 
 C                     6.25811   14.5456   17.29534 
 O                     11.57239   18.7339   5.65536 
 C                     10.27369   19.24174   5.93729 
 O                     20.39593   13.92133   11.36096 
 C                     20.15717   14.60882   10.13917 
 O                     15.31734   13.54078   22.36044 
 C                     16.71029   13.81153   22.28017 
 H                     5.79173   15.36787   17.84736 
 H                     7.34487   14.5509   17.47975 
 H                     5.83843   13.58761   17.6434 
 H                     17.0117   14.12676   23.28435 
 H                     16.92485   14.62086   21.5632 
 H                     17.28202   12.91411   21.99254 
 H                     20.87905   15.4315   10.11369 
 H                     20.3192   13.9542   9.26747 
 H                     19.13468   15.01785   10.0983 
 H                     10.20827   19.64338   6.9614 
 H                     9.50083   18.46838   5.80204 
 H                     10.10669   20.05082   5.21902 
 C                     11.36954   12.82203   22.7135 
 C                     21.13957   12.07708   14.86482 
 C                     14.49766   18.98849   5.17401 
 C                     5.04251   15.53844   12.07565 
 H                     21.96564   12.6438   15.3064 
 H                     20.26858   12.11427   15.53905 
 H                     21.44603   11.02752   14.7288 
 H                     11.14459   13.026    23.76536 
 H                     11.11504   11.77572   22.48023 
 H                     10.77005   13.49067   22.07477 
 H                     4.44301   16.45384   12.10926 
 H                     4.44912   14.72727   11.6239 
 H                     5.94133   15.71193   11.46222 
 H                     15.07684   19.11013   6.10334 
 H                     13.66429   19.70333   5.1612 
 H                     15.15195   19.16849   4.31392 
 
 NAtoms=    177 NQM=    177 NQMF=      0 NMic=      0 NMicF=      0 NTot=    177.
                    Isotopes and Nuclear Properties:
 (Nuclear quadrupole moments (NQMom) in fm**2, nuclear magnetic moments (NMagM)
  in nuclear magnetons)

  Atom         1           2           3           4           5           6           7           8           9          10
 IAtWgt=          12          12          12          12          12          12          12          12          12          12
 AtmWgt=  12.0000000  12.0000000  12.0000000  12.0000000  12.0000000  12.0000000  12.0000000  12.0000000  12.0000000  12.0000000
 NucSpn=           0           0           0           0           0           0           0           0           0           0
 AtZEff=   0.0000000   0.0000000   0.0000000   0.0000000   0.0000000   0.0000000   0.0000000   0.0000000   0.0000000   0.0000000
 NQMom=    0.0000000   0.0000000   0.0000000   0.0000000   0.0000000   0.0000000   0.0000000   0.0000000   0.0000000   0.0000000
 NMagM=    0.0000000   0.0000000   0.0000000   0.0000000   0.0000000   0.0000000   0.0000000   0.0000000   0.0000000   0.0000000

  Atom        11          12          13          14          15          16          17          18          19          20
 IAtWgt=          12          12          12          12          12          12          12          12          12          12
 AtmWgt=  12.0000000  12.0000000  12.0000000  12.0000000  12.0000000  12.0000000  12.0000000  12.0000000  12.0000000  12.0000000
 NucSpn=           0           0           0           0           0           0           0           0           0           0
 AtZEff=   0.0000000   0.0000000   0.0000000   0.0000000   0.0000000   0.0000000   0.0000000   0.0000000   0.0000000   0.0000000
 NQMom=    0.0000000   0.0000000   0.0000000   0.0000000   0.0000000   0.0000000   0.0000000   0.0000000   0.0000000   0.0000000
 NMagM=    0.0000000   0.0000000   0.0000000   0.0000000   0.0000000   0.0000000   0.0000000   0.0000000   0.0000000   0.0000000

  Atom        21          22          23          24          25          26          27          28          29          30
 IAtWgt=          12          12          12          12          12          14          14          14          14          12
 AtmWgt=  12.0000000  12.0000000  12.0000000  12.0000000  12.0000000  14.0030740  14.0030740  14.0030740  14.0030740  12.0000000
 NucSpn=           0           0           0           0           0           2           2           2           2           0
 AtZEff=   0.0000000   0.0000000   0.0000000   0.0000000   0.0000000   0.0000000   0.0000000   0.0000000   0.0000000   0.0000000
 NQMom=    0.0000000   0.0000000   0.0000000   0.0000000   0.0000000   2.0440000   2.0440000   2.0440000   2.0440000   0.0000000
 NMagM=    0.0000000   0.0000000   0.0000000   0.0000000   0.0000000   0.4037610   0.4037610   0.4037610   0.4037610   0.0000000

  Atom        31          32          33          34          35          36          37          38          39          40
 IAtWgt=          12          12          12          12          12          12          12          12          12          12
 AtmWgt=  12.0000000  12.0000000  12.0000000  12.0000000  12.0000000  12.0000000  12.0000000  12.0000000  12.0000000  12.0000000
 NucSpn=           0           0           0           0           0           0           0           0           0           0
 AtZEff=   0.0000000   0.0000000   0.0000000   0.0000000   0.0000000   0.0000000   0.0000000   0.0000000   0.0000000   0.0000000
 NQMom=    0.0000000   0.0000000   0.0000000   0.0000000   0.0000000   0.0000000   0.0000000   0.0000000   0.0000000   0.0000000
 NMagM=    0.0000000   0.0000000   0.0000000   0.0000000   0.0000000   0.0000000   0.0000000   0.0000000   0.0000000   0.0000000

  Atom        41          42          43          44          45          46          47          48          49          50
 IAtWgt=          12          12          12          12          12          12          12          12          12          12
 AtmWgt=  12.0000000  12.0000000  12.0000000  12.0000000  12.0000000  12.0000000  12.0000000  12.0000000  12.0000000  12.0000000
 NucSpn=           0           0           0           0           0           0           0           0           0           0
 AtZEff=   0.0000000   0.0000000   0.0000000   0.0000000   0.0000000   0.0000000   0.0000000   0.0000000   0.0000000   0.0000000
 NQMom=    0.0000000   0.0000000   0.0000000   0.0000000   0.0000000   0.0000000   0.0000000   0.0000000   0.0000000   0.0000000
 NMagM=    0.0000000   0.0000000   0.0000000   0.0000000   0.0000000   0.0000000   0.0000000   0.0000000   0.0000000   0.0000000

  Atom        51          52          53          54          55          56          57          58          59          60
 IAtWgt=          12          12          12          12          12          12          12          12          12          12
 AtmWgt=  12.0000000  12.0000000  12.0000000  12.0000000  12.0000000  12.0000000  12.0000000  12.0000000  12.0000000  12.0000000
 NucSpn=           0           0           0           0           0           0           0           0           0           0
 AtZEff=   0.0000000   0.0000000   0.0000000   0.0000000   0.0000000   0.0000000   0.0000000   0.0000000   0.0000000   0.0000000
 NQMom=    0.0000000   0.0000000   0.0000000   0.0000000   0.0000000   0.0000000   0.0000000   0.0000000   0.0000000   0.0000000
 NMagM=    0.0000000   0.0000000   0.0000000   0.0000000   0.0000000   0.0000000   0.0000000   0.0000000   0.0000000   0.0000000

  Atom        61          62          63          64          65          66          67          68          69          70
 IAtWgt=          12          12          12          12          12          12          12          12          12          12
 AtmWgt=  12.0000000  12.0000000  12.0000000  12.0000000  12.0000000  12.0000000  12.0000000  12.0000000  12.0000000  12.0000000
 NucSpn=           0           0           0           0           0           0           0           0           0           0
 AtZEff=   0.0000000   0.0000000   0.0000000   0.0000000   0.0000000   0.0000000   0.0000000   0.0000000   0.0000000   0.0000000
 NQMom=    0.0000000   0.0000000   0.0000000   0.0000000   0.0000000   0.0000000   0.0000000   0.0000000   0.0000000   0.0000000
 NMagM=    0.0000000   0.0000000   0.0000000   0.0000000   0.0000000   0.0000000   0.0000000   0.0000000   0.0000000   0.0000000

  Atom        71          72          73          74          75          76          77          78          79          80
 IAtWgt=          12          12          12          12          12          12          12           1           1           1
 AtmWgt=  12.0000000  12.0000000  12.0000000  12.0000000  12.0000000  12.0000000  12.0000000   1.0078250   1.0078250   1.0078250
 NucSpn=           0           0           0           0           0           0           0           1           1           1
 AtZEff=   0.0000000   0.0000000   0.0000000   0.0000000   0.0000000   0.0000000   0.0000000   0.0000000   0.0000000   0.0000000
 NQMom=    0.0000000   0.0000000   0.0000000   0.0000000   0.0000000   0.0000000   0.0000000   0.0000000   0.0000000   0.0000000
 NMagM=    0.0000000   0.0000000   0.0000000   0.0000000   0.0000000   0.0000000   0.0000000   2.7928460   2.7928460   2.7928460

  Atom        81          82          83          84          85          86          87          88          89          90
 IAtWgt=           1           1           1           1           1           1           1           1           1          16
 AtmWgt=   1.0078250   1.0078250   1.0078250   1.0078250   1.0078250   1.0078250   1.0078250   1.0078250   1.0078250  15.9949146
 NucSpn=           1           1           1           1           1           1           1           1           1           0
 AtZEff=   0.0000000   0.0000000   0.0000000   0.0000000   0.0000000   0.0000000   0.0000000   0.0000000   0.0000000   0.0000000
 NQMom=    0.0000000   0.0000000   0.0000000   0.0000000   0.0000000   0.0000000   0.0000000   0.0000000   0.0000000   0.0000000
 NMagM=    2.7928460   2.7928460   2.7928460   2.7928460   2.7928460   2.7928460   2.7928460   2.7928460   2.7928460   0.0000000

  Atom        91          92          93          94          95          96          97          98          99         100
 IAtWgt=          12          16          12          16          16          12          12           1           1           1
 AtmWgt=  12.0000000  15.9949146  12.0000000  15.9949146  15.9949146  12.0000000  12.0000000   1.0078250   1.0078250   1.0078250
 NucSpn=           0           0           0           0           0           0           0           1           1           1
 AtZEff=   0.0000000   0.0000000   0.0000000   0.0000000   0.0000000   0.0000000   0.0000000   0.0000000   0.0000000   0.0000000
 NQMom=    0.0000000   0.0000000   0.0000000   0.0000000   0.0000000   0.0000000   0.0000000   0.0000000   0.0000000   0.0000000
 NMagM=    0.0000000   0.0000000   0.0000000   0.0000000   0.0000000   0.0000000   0.0000000   2.7928460   2.7928460   2.7928460

  Atom       101         102         103         104         105         106         107         108         109         110
 IAtWgt=           1           1           1           1           1           1           1           1           1           1
 AtmWgt=   1.0078250   1.0078250   1.0078250   1.0078250   1.0078250   1.0078250   1.0078250   1.0078250   1.0078250   1.0078250
 NucSpn=           1           1           1           1           1           1           1           1           1           1
 AtZEff=   0.0000000   0.0000000   0.0000000   0.0000000   0.0000000   0.0000000   0.0000000   0.0000000   0.0000000   0.0000000
 NQMom=    0.0000000   0.0000000   0.0000000   0.0000000   0.0000000   0.0000000   0.0000000   0.0000000   0.0000000   0.0000000
 NMagM=    2.7928460   2.7928460   2.7928460   2.7928460   2.7928460   2.7928460   2.7928460   2.7928460   2.7928460   2.7928460

  Atom       111         112         113         114         115         116         117         118         119         120
 IAtWgt=           1           1           1           1           1           1           1           1           1           1
 AtmWgt=   1.0078250   1.0078250   1.0078250   1.0078250   1.0078250   1.0078250   1.0078250   1.0078250   1.0078250   1.0078250
 NucSpn=           1           1           1           1           1           1           1           1           1           1
 AtZEff=   0.0000000   0.0000000   0.0000000   0.0000000   0.0000000   0.0000000   0.0000000   0.0000000   0.0000000   0.0000000
 NQMom=    0.0000000   0.0000000   0.0000000   0.0000000   0.0000000   0.0000000   0.0000000   0.0000000   0.0000000   0.0000000
 NMagM=    2.7928460   2.7928460   2.7928460   2.7928460   2.7928460   2.7928460   2.7928460   2.7928460   2.7928460   2.7928460

  Atom       121         122         123         124         125         126         127         128         129         130
 IAtWgt=           1           1           1           1           1          16           1           1           1           1
 AtmWgt=   1.0078250   1.0078250   1.0078250   1.0078250   1.0078250  15.9949146   1.0078250   1.0078250   1.0078250   1.0078250
 NucSpn=           1           1           1           1           1           0           1           1           1           1
 AtZEff=   0.0000000   0.0000000   0.0000000   0.0000000   0.0000000   0.0000000   0.0000000   0.0000000   0.0000000   0.0000000
 NQMom=    0.0000000   0.0000000   0.0000000   0.0000000   0.0000000   0.0000000   0.0000000   0.0000000   0.0000000   0.0000000
 NMagM=    2.7928460   2.7928460   2.7928460   2.7928460   2.7928460   0.0000000   2.7928460   2.7928460   2.7928460   2.7928460

  Atom       131         132         133         134         135         136         137         138         139         140
 IAtWgt=           1          16           1          16           1           1           1           1           1          16
 AtmWgt=   1.0078250  15.9949146   1.0078250  15.9949146   1.0078250   1.0078250   1.0078250   1.0078250   1.0078250  15.9949146
 NucSpn=           1           0           1           0           1           1           1           1           1           0
 AtZEff=   0.0000000   0.0000000   0.0000000   0.0000000   0.0000000   0.0000000   0.0000000   0.0000000   0.0000000   0.0000000
 NQMom=    0.0000000   0.0000000   0.0000000   0.0000000   0.0000000   0.0000000   0.0000000   0.0000000   0.0000000   0.0000000
 NMagM=    2.7928460   0.0000000   2.7928460   0.0000000   2.7928460   2.7928460   2.7928460   2.7928460   2.7928460   0.0000000

  Atom       141         142         143         144         145         146         147         148         149         150
 IAtWgt=           1          16          12          16          12          16          12          16          12           1
 AtmWgt=   1.0078250  15.9949146  12.0000000  15.9949146  12.0000000  15.9949146  12.0000000  15.9949146  12.0000000   1.0078250
 NucSpn=           1           0           0           0           0           0           0           0           0           1
 AtZEff=   0.0000000   0.0000000   0.0000000   0.0000000   0.0000000   0.0000000   0.0000000   0.0000000   0.0000000   0.0000000
 NQMom=    0.0000000   0.0000000   0.0000000   0.0000000   0.0000000   0.0000000   0.0000000   0.0000000   0.0000000   0.0000000
 NMagM=    2.7928460   0.0000000   0.0000000   0.0000000   0.0000000   0.0000000   0.0000000   0.0000000   0.0000000   2.7928460

  Atom       151         152         153         154         155         156         157         158         159         160
 IAtWgt=           1           1           1           1           1           1           1           1           1           1
 AtmWgt=   1.0078250   1.0078250   1.0078250   1.0078250   1.0078250   1.0078250   1.0078250   1.0078250   1.0078250   1.0078250
 NucSpn=           1           1           1           1           1           1           1           1           1           1
 AtZEff=   0.0000000   0.0000000   0.0000000   0.0000000   0.0000000   0.0000000   0.0000000   0.0000000   0.0000000   0.0000000
 NQMom=    0.0000000   0.0000000   0.0000000   0.0000000   0.0000000   0.0000000   0.0000000   0.0000000   0.0000000   0.0000000
 NMagM=    2.7928460   2.7928460   2.7928460   2.7928460   2.7928460   2.7928460   2.7928460   2.7928460   2.7928460   2.7928460

  Atom       161         162         163         164         165         166         167         168         169         170
 IAtWgt=           1          12          12          12          12           1           1           1           1           1
 AtmWgt=   1.0078250  12.0000000  12.0000000  12.0000000  12.0000000   1.0078250   1.0078250   1.0078250   1.0078250   1.0078250
 NucSpn=           1           0           0           0           0           1           1           1           1           1
 AtZEff=   0.0000000   0.0000000   0.0000000   0.0000000   0.0000000   0.0000000   0.0000000   0.0000000   0.0000000   0.0000000
 NQMom=    0.0000000   0.0000000   0.0000000   0.0000000   0.0000000   0.0000000   0.0000000   0.0000000   0.0000000   0.0000000
 NMagM=    2.7928460   0.0000000   0.0000000   0.0000000   0.0000000   2.7928460   2.7928460   2.7928460   2.7928460   2.7928460

  Atom       171         172         173         174         175         176         177
 IAtWgt=           1           1           1           1           1           1           1
 AtmWgt=   1.0078250   1.0078250   1.0078250   1.0078250   1.0078250   1.0078250   1.0078250
 NucSpn=           1           1           1           1           1           1           1
 AtZEff=   0.0000000   0.0000000   0.0000000   0.0000000   0.0000000   0.0000000   0.0000000
 NQMom=    0.0000000   0.0000000   0.0000000   0.0000000   0.0000000   0.0000000   0.0000000
 NMagM=    2.7928460   2.7928460   2.7928460   2.7928460   2.7928460   2.7928460   2.7928460
 Leave Link  101 at Fri Aug  8 23:05:58 2014, MaxMem= 2147483648 cpu:       5.5
 (Enter /opt/g09/l103.exe)

 GradGradGradGradGradGradGradGradGradGradGradGradGradGradGradGradGradGrad
 Berny optimization.
 Initialization pass.
                           ----------------------------
                           !    Initial Parameters    !
                           ! (Angstroms and Degrees)  !
 --------------------------                            --------------------------
 ! Name  Definition              Value          Derivative Info.                !
 --------------------------------------------------------------------------------
 ! R1    R(1,2)                  1.5312         estimate D2E/DX2                !
 ! R2    R(1,5)                  1.5308         estimate D2E/DX2                !
 ! R3    R(1,6)                  1.5315         estimate D2E/DX2                !
 ! R4    R(1,9)                  1.531          estimate D2E/DX2                !
 ! R5    R(2,3)                  1.4114         estimate D2E/DX2                !
 ! R6    R(2,18)                 1.3851         estimate D2E/DX2                !
 ! R7    R(3,4)                  1.4585         estimate D2E/DX2                !
 ! R8    R(3,21)                 1.3991         estimate D2E/DX2                !
 ! R9    R(4,5)                  1.4116         estimate D2E/DX2                !
 ! R10   R(4,14)                 1.3987         estimate D2E/DX2                !
 ! R11   R(5,17)                 1.3846         estimate D2E/DX2                !
 ! R12   R(6,7)                  1.4108         estimate D2E/DX2                !
 ! R13   R(6,10)                 1.3854         estimate D2E/DX2                !
 ! R14   R(7,8)                  1.4579         estimate D2E/DX2                !
 ! R15   R(7,13)                 1.3992         estimate D2E/DX2                !
 ! R16   R(8,9)                  1.4108         estimate D2E/DX2                !
 ! R17   R(8,22)                 1.3991         estimate D2E/DX2                !
 ! R18   R(9,25)                 1.3857         estimate D2E/DX2                !
 ! R19   R(10,11)                1.41           estimate D2E/DX2                !
 ! R20   R(10,89)                1.09           estimate D2E/DX2                !
 ! R21   R(11,12)                1.41           estimate D2E/DX2                !
 ! R22   R(11,26)                1.415          estimate D2E/DX2                !
 ! R23   R(12,13)                1.3921         estimate D2E/DX2                !
 ! R24   R(12,87)                1.0893         estimate D2E/DX2                !
 ! R25   R(13,86)                1.0909         estimate D2E/DX2                !
 ! R26   R(14,15)                1.3926         estimate D2E/DX2                !
 ! R27   R(14,82)                1.0907         estimate D2E/DX2                !
 ! R28   R(15,16)                1.4101         estimate D2E/DX2                !
 ! R29   R(15,83)                1.0891         estimate D2E/DX2                !
 ! R30   R(16,17)                1.4109         estimate D2E/DX2                !
 ! R31   R(16,27)                1.4132         estimate D2E/DX2                !
 ! R32   R(17,88)                1.09           estimate D2E/DX2                !
 ! R33   R(18,19)                1.4098         estimate D2E/DX2                !
 ! R34   R(18,79)                1.0901         estimate D2E/DX2                !
 ! R35   R(19,20)                1.4094         estimate D2E/DX2                !
 ! R36   R(19,28)                1.4155         estimate D2E/DX2                !
 ! R37   R(20,21)                1.3927         estimate D2E/DX2                !
 ! R38   R(20,80)                1.0893         estimate D2E/DX2                !
 ! R39   R(21,81)                1.0909         estimate D2E/DX2                !
 ! R40   R(22,23)                1.3916         estimate D2E/DX2                !
 ! R41   R(22,84)                1.0909         estimate D2E/DX2                !
 ! R42   R(23,24)                1.4106         estimate D2E/DX2                !
 ! R43   R(23,85)                1.0892         estimate D2E/DX2                !
 ! R44   R(24,25)                1.4104         estimate D2E/DX2                !
 ! R45   R(24,29)                1.414          estimate D2E/DX2                !
 ! R46   R(25,78)                1.09           estimate D2E/DX2                !
 ! R47   R(26,34)                1.419          estimate D2E/DX2                !
 ! R48   R(26,35)                1.4195         estimate D2E/DX2                !
 ! R49   R(27,36)                1.4184         estimate D2E/DX2                !
 ! R50   R(27,37)                1.4218         estimate D2E/DX2                !
 ! R51   R(28,31)                1.4204         estimate D2E/DX2                !
 ! R52   R(28,33)                1.4178         estimate D2E/DX2                !
 ! R53   R(29,30)                1.4218         estimate D2E/DX2                !
 ! R54   R(29,32)                1.4185         estimate D2E/DX2                !
 ! R55   R(30,73)                1.3949         estimate D2E/DX2                !
 ! R56   R(30,77)                1.4092         estimate D2E/DX2                !
 ! R57   R(31,58)                1.3951         estimate D2E/DX2                !
 ! R58   R(31,62)                1.4092         estimate D2E/DX2                !
 ! R59   R(32,68)                1.408          estimate D2E/DX2                !
 ! R60   R(32,72)                1.4008         estimate D2E/DX2                !
 ! R61   R(33,63)                1.4012         estimate D2E/DX2                !
 ! R62   R(33,67)                1.4079         estimate D2E/DX2                !
 ! R63   R(34,43)                1.4004         estimate D2E/DX2                !
 ! R64   R(34,47)                1.4076         estimate D2E/DX2                !
 ! R65   R(35,48)                1.4053         estimate D2E/DX2                !
 ! R66   R(35,52)                1.3994         estimate D2E/DX2                !
 ! R67   R(36,38)                1.4006         estimate D2E/DX2                !
 ! R68   R(36,42)                1.408          estimate D2E/DX2                !
 ! R69   R(37,53)                1.4087         estimate D2E/DX2                !
 ! R70   R(37,57)                1.3944         estimate D2E/DX2                !
 ! R71   R(38,39)                1.3973         estimate D2E/DX2                !
 ! R72   R(38,103)               1.0896         estimate D2E/DX2                !
 ! R73   R(39,40)                1.3998         estimate D2E/DX2                !
 ! R74   R(39,102)               1.0881         estimate D2E/DX2                !
 ! R75   R(40,41)                1.4035         estimate D2E/DX2                !
 ! R76   R(40,94)                1.3709         estimate D2E/DX2                !
 ! R77   R(41,42)                1.3873         estimate D2E/DX2                !
 ! R78   R(41,98)                1.0897         estimate D2E/DX2                !
 ! R79   R(42,99)                1.0895         estimate D2E/DX2                !
 ! R80   R(43,44)                1.3967         estimate D2E/DX2                !
 ! R81   R(43,100)               1.0894         estimate D2E/DX2                !
 ! R82   R(44,45)                1.3998         estimate D2E/DX2                !
 ! R83   R(44,101)               1.088          estimate D2E/DX2                !
 ! R84   R(45,46)                1.4033         estimate D2E/DX2                !
 ! R85   R(45,95)                1.37           estimate D2E/DX2                !
 ! R86   R(46,47)                1.3875         estimate D2E/DX2                !
 ! R87   R(46,104)               1.09           estimate D2E/DX2                !
 ! R88   R(47,105)               1.0897         estimate D2E/DX2                !
 ! R89   R(48,49)                1.3908         estimate D2E/DX2                !
 ! R90   R(48,141)               1.0892         estimate D2E/DX2                !
 ! R91   R(49,50)                1.4164         estimate D2E/DX2                !
 ! R92   R(49,140)               1.3761         estimate D2E/DX2                !
 ! R93   R(50,51)                1.3986         estimate D2E/DX2                !
 ! R94   R(50,144)               1.3703         estimate D2E/DX2                !
 ! R95   R(51,52)                1.3963         estimate D2E/DX2                !
 ! R96   R(51,139)               1.0881         estimate D2E/DX2                !
 ! R97   R(52,138)               1.0888         estimate D2E/DX2                !
 ! R98   R(53,54)                1.392          estimate D2E/DX2                !
 ! R99   R(53,135)               1.0874         estimate D2E/DX2                !
 ! R100  R(54,55)                1.4206         estimate D2E/DX2                !
 ! R101  R(54,134)               1.3647         estimate D2E/DX2                !
 ! R102  R(55,56)                1.3939         estimate D2E/DX2                !
 ! R103  R(55,146)               1.3657         estimate D2E/DX2                !
 ! R104  R(56,57)                1.3998         estimate D2E/DX2                !
 ! R105  R(56,136)               1.0883         estimate D2E/DX2                !
 ! R106  R(57,137)               1.0889         estimate D2E/DX2                !
 ! R107  R(58,59)                1.3996         estimate D2E/DX2                !
 ! R108  R(58,129)               1.0888         estimate D2E/DX2                !
 ! R109  R(59,60)                1.394          estimate D2E/DX2                !
 ! R110  R(59,128)               1.0884         estimate D2E/DX2                !
 ! R111  R(60,61)                1.4202         estimate D2E/DX2                !
 ! R112  R(60,142)               1.3663         estimate D2E/DX2                !
 ! R113  R(61,62)                1.3921         estimate D2E/DX2                !
 ! R114  R(61,126)               1.3648         estimate D2E/DX2                !
 ! R115  R(62,127)               1.0873         estimate D2E/DX2                !
 ! R116  R(63,64)                1.3965         estimate D2E/DX2                !
 ! R117  R(63,111)               1.0895         estimate D2E/DX2                !
 ! R118  R(64,65)                1.4002         estimate D2E/DX2                !
 ! R119  R(64,110)               1.0882         estimate D2E/DX2                !
 ! R120  R(65,66)                1.4029         estimate D2E/DX2                !
 ! R121  R(65,92)                1.3712         estimate D2E/DX2                !
 ! R122  R(66,67)                1.3879         estimate D2E/DX2                !
 ! R123  R(66,112)               1.0899         estimate D2E/DX2                !
 ! R124  R(67,113)               1.0895         estimate D2E/DX2                !
 ! R125  R(68,69)                1.3877         estimate D2E/DX2                !
 ! R126  R(68,109)               1.0898         estimate D2E/DX2                !
 ! R127  R(69,70)                1.4034         estimate D2E/DX2                !
 ! R128  R(69,108)               1.0901         estimate D2E/DX2                !
 ! R129  R(70,71)                1.4            estimate D2E/DX2                !
 ! R130  R(70,90)                1.3701         estimate D2E/DX2                !
 ! R131  R(71,72)                1.3969         estimate D2E/DX2                !
 ! R132  R(71,107)               1.0881         estimate D2E/DX2                !
 ! R133  R(72,106)               1.0896         estimate D2E/DX2                !
 ! R134  R(73,74)                1.3998         estimate D2E/DX2                !
 ! R135  R(73,130)               1.0886         estimate D2E/DX2                !
 ! R136  R(74,75)                1.394          estimate D2E/DX2                !
 ! R137  R(74,131)               1.088          estimate D2E/DX2                !
 ! R138  R(75,76)                1.4204         estimate D2E/DX2                !
 ! R139  R(75,148)               1.3662         estimate D2E/DX2                !
 ! R140  R(76,77)                1.3919         estimate D2E/DX2                !
 ! R141  R(76,132)               1.3648         estimate D2E/DX2                !
 ! R142  R(77,133)               1.0874         estimate D2E/DX2                !
 ! R143  R(90,91)                1.4221         estimate D2E/DX2                !
 ! R144  R(91,123)               1.1023         estimate D2E/DX2                !
 ! R145  R(91,124)               1.1019         estimate D2E/DX2                !
 ! R146  R(91,125)               1.0946         estimate D2E/DX2                !
 ! R147  R(92,93)                1.422          estimate D2E/DX2                !
 ! R148  R(93,114)               1.1024         estimate D2E/DX2                !
 ! R149  R(93,115)               1.1022         estimate D2E/DX2                !
 ! R150  R(93,116)               1.0949         estimate D2E/DX2                !
 ! R151  R(94,97)                1.422          estimate D2E/DX2                !
 ! R152  R(95,96)                1.4221         estimate D2E/DX2                !
 ! R153  R(96,117)               1.102          estimate D2E/DX2                !
 ! R154  R(96,118)               1.102          estimate D2E/DX2                !
 ! R155  R(96,119)               1.0948         estimate D2E/DX2                !
 ! R156  R(97,120)               1.0948         estimate D2E/DX2                !
 ! R157  R(97,121)               1.1023         estimate D2E/DX2                !
 ! R158  R(97,122)               1.1021         estimate D2E/DX2                !
 ! R159  R(126,165)              1.4226         estimate D2E/DX2                !
 ! R160  R(132,162)              1.4228         estimate D2E/DX2                !
 ! R161  R(134,163)              1.4226         estimate D2E/DX2                !
 ! R162  R(140,164)              1.4349         estimate D2E/DX2                !
 ! R163  R(142,143)              1.4217         estimate D2E/DX2                !
 ! R164  R(143,150)              1.0947         estimate D2E/DX2                !
 ! R165  R(143,151)              1.1023         estimate D2E/DX2                !
 ! R166  R(143,152)              1.1023         estimate D2E/DX2                !
 ! R167  R(144,145)              1.4227         estimate D2E/DX2                !
 ! R168  R(145,159)              1.102          estimate D2E/DX2                !
 ! R169  R(145,160)              1.1017         estimate D2E/DX2                !
 ! R170  R(145,161)              1.0947         estimate D2E/DX2                !
 ! R171  R(146,147)              1.4221         estimate D2E/DX2                !
 ! R172  R(147,156)              1.0948         estimate D2E/DX2                !
 ! R173  R(147,157)              1.1021         estimate D2E/DX2                !
 ! R174  R(147,158)              1.102          estimate D2E/DX2                !
 ! R175  R(148,149)              1.4213         estimate D2E/DX2                !
 ! R176  R(149,153)              1.0948         estimate D2E/DX2                !
 ! R177  R(149,154)              1.1023         estimate D2E/DX2                !
 ! R178  R(149,155)              1.1023         estimate D2E/DX2                !
 ! R179  R(162,169)              1.0948         estimate D2E/DX2                !
 ! R180  R(162,170)              1.1018         estimate D2E/DX2                !
 ! R181  R(162,171)              1.102          estimate D2E/DX2                !
 ! R182  R(163,166)              1.0948         estimate D2E/DX2                !
 ! R183  R(163,167)              1.1021         estimate D2E/DX2                !
 ! R184  R(163,168)              1.1018         estimate D2E/DX2                !
 ! R185  R(164,175)              1.1018         estimate D2E/DX2                !
 ! R186  R(164,176)              1.098          estimate D2E/DX2                !
 ! R187  R(164,177)              1.0956         estimate D2E/DX2                !
 ! R188  R(165,172)              1.0947         estimate D2E/DX2                !
 ! R189  R(165,173)              1.1019         estimate D2E/DX2                !
 ! R190  R(165,174)              1.1019         estimate D2E/DX2                !
 ! A1    A(2,1,5)              101.4123         estimate D2E/DX2                !
 ! A2    A(2,1,6)              113.3174         estimate D2E/DX2                !
 ! A3    A(2,1,9)              113.7969         estimate D2E/DX2                !
 ! A4    A(5,1,6)              113.5794         estimate D2E/DX2                !
 ! A5    A(5,1,9)              113.8984         estimate D2E/DX2                !
 ! A6    A(6,1,9)              101.3987         estimate D2E/DX2                !
 ! A7    A(1,2,3)              110.4635         estimate D2E/DX2                !
 ! A8    A(1,2,18)             128.0437         estimate D2E/DX2                !
 ! A9    A(3,2,18)             121.4792         estimate D2E/DX2                !
 ! A10   A(2,3,4)              108.8185         estimate D2E/DX2                !
 ! A11   A(2,3,21)             119.2816         estimate D2E/DX2                !
 ! A12   A(4,3,21)             131.8989         estimate D2E/DX2                !
 ! A13   A(3,4,5)              108.8422         estimate D2E/DX2                !
 ! A14   A(3,4,14)             131.9417         estimate D2E/DX2                !
 ! A15   A(5,4,14)             119.2161         estimate D2E/DX2                !
 ! A16   A(1,5,4)              110.4557         estimate D2E/DX2                !
 ! A17   A(1,5,17)             128.0115         estimate D2E/DX2                !
 ! A18   A(4,5,17)             121.5301         estimate D2E/DX2                !
 ! A19   A(1,6,7)              110.4395         estimate D2E/DX2                !
 ! A20   A(1,6,10)             128.06           estimate D2E/DX2                !
 ! A21   A(7,6,10)             121.4931         estimate D2E/DX2                !
 ! A22   A(6,7,8)              108.8496         estimate D2E/DX2                !
 ! A23   A(6,7,13)             119.2739         estimate D2E/DX2                !
 ! A24   A(8,7,13)             131.8766         estimate D2E/DX2                !
 ! A25   A(7,8,9)              108.8648         estimate D2E/DX2                !
 ! A26   A(7,8,22)             131.8488         estimate D2E/DX2                !
 ! A27   A(9,8,22)             119.2859         estimate D2E/DX2                !
 ! A28   A(1,9,8)              110.4452         estimate D2E/DX2                !
 ! A29   A(1,9,25)             128.066          estimate D2E/DX2                !
 ! A30   A(8,9,25)             121.482          estimate D2E/DX2                !
 ! A31   A(6,10,11)            119.2652         estimate D2E/DX2                !
 ! A32   A(6,10,89)            120.8877         estimate D2E/DX2                !
 ! A33   A(11,10,89)           119.8468         estimate D2E/DX2                !
 ! A34   A(10,11,12)           119.2502         estimate D2E/DX2                !
 ! A35   A(10,11,26)           120.573          estimate D2E/DX2                !
 ! A36   A(12,11,26)           120.1766         estimate D2E/DX2                !
 ! A37   A(11,12,13)           121.137          estimate D2E/DX2                !
 ! A38   A(11,12,87)           118.9116         estimate D2E/DX2                !
 ! A39   A(13,12,87)           119.9513         estimate D2E/DX2                !
 ! A40   A(7,13,12)            119.5761         estimate D2E/DX2                !
 ! A41   A(7,13,86)            120.8408         estimate D2E/DX2                !
 ! A42   A(12,13,86)           119.5769         estimate D2E/DX2                !
 ! A43   A(4,14,15)            119.6193         estimate D2E/DX2                !
 ! A44   A(4,14,82)            120.8427         estimate D2E/DX2                !
 ! A45   A(15,14,82)           119.5309         estimate D2E/DX2                !
 ! A46   A(14,15,16)           121.1506         estimate D2E/DX2                !
 ! A47   A(14,15,83)           119.8692         estimate D2E/DX2                !
 ! A48   A(16,15,83)           118.9795         estimate D2E/DX2                !
 ! A49   A(15,16,17)           119.1819         estimate D2E/DX2                !
 ! A50   A(15,16,27)           120.4972         estimate D2E/DX2                !
 ! A51   A(17,16,27)           120.3208         estimate D2E/DX2                !
 ! A52   A(5,17,16)            119.2995         estimate D2E/DX2                !
 ! A53   A(5,17,88)            120.9406         estimate D2E/DX2                !
 ! A54   A(16,17,88)           119.7599         estimate D2E/DX2                !
 ! A55   A(2,18,19)            119.2623         estimate D2E/DX2                !
 ! A56   A(2,18,79)            121.0217         estimate D2E/DX2                !
 ! A57   A(19,18,79)           119.7153         estimate D2E/DX2                !
 ! A58   A(18,19,20)           119.2979         estimate D2E/DX2                !
 ! A59   A(18,19,28)           120.3735         estimate D2E/DX2                !
 ! A60   A(20,19,28)           120.3286         estimate D2E/DX2                !
 ! A61   A(19,20,21)           121.1185         estimate D2E/DX2                !
 ! A62   A(19,20,80)           118.8688         estimate D2E/DX2                !
 ! A63   A(21,20,80)           120.0124         estimate D2E/DX2                !
 ! A64   A(3,21,20)            119.5595         estimate D2E/DX2                !
 ! A65   A(3,21,81)            120.8332         estimate D2E/DX2                !
 ! A66   A(20,21,81)           119.6021         estimate D2E/DX2                !
 ! A67   A(8,22,23)            119.5828         estimate D2E/DX2                !
 ! A68   A(8,22,84)            120.8182         estimate D2E/DX2                !
 ! A69   A(23,22,84)           119.594          estimate D2E/DX2                !
 ! A70   A(22,23,24)           121.1638         estimate D2E/DX2                !
 ! A71   A(22,23,85)           119.9351         estimate D2E/DX2                !
 ! A72   A(24,23,85)           118.9007         estimate D2E/DX2                !
 ! A73   A(23,24,25)           119.2016         estimate D2E/DX2                !
 ! A74   A(23,24,29)           120.1537         estimate D2E/DX2                !
 ! A75   A(25,24,29)           120.6446         estimate D2E/DX2                !
 ! A76   A(9,25,24)            119.2791         estimate D2E/DX2                !
 ! A77   A(9,25,78)            120.8609         estimate D2E/DX2                !
 ! A78   A(24,25,78)           119.8588         estimate D2E/DX2                !
 ! A79   A(11,26,34)           120.4825         estimate D2E/DX2                !
 ! A80   A(11,26,35)           120.0944         estimate D2E/DX2                !
 ! A81   A(34,26,35)           119.4226         estimate D2E/DX2                !
 ! A82   A(16,27,36)           120.5445         estimate D2E/DX2                !
 ! A83   A(16,27,37)           120.0939         estimate D2E/DX2                !
 ! A84   A(36,27,37)           119.2753         estimate D2E/DX2                !
 ! A85   A(19,28,31)           120.0391         estimate D2E/DX2                !
 ! A86   A(19,28,33)           120.2822         estimate D2E/DX2                !
 ! A87   A(31,28,33)           119.6689         estimate D2E/DX2                !
 ! A88   A(24,29,30)           120.0356         estimate D2E/DX2                !
 ! A89   A(24,29,32)           120.659          estimate D2E/DX2                !
 ! A90   A(30,29,32)           119.3051         estimate D2E/DX2                !
 ! A91   A(29,30,73)           121.1594         estimate D2E/DX2                !
 ! A92   A(29,30,77)           119.7931         estimate D2E/DX2                !
 ! A93   A(73,30,77)           119.0472         estimate D2E/DX2                !
 ! A94   A(28,31,58)           121.084          estimate D2E/DX2                !
 ! A95   A(28,31,62)           119.8852         estimate D2E/DX2                !
 ! A96   A(58,31,62)           119.0308         estimate D2E/DX2                !
 ! A97   A(29,32,68)           120.9621         estimate D2E/DX2                !
 ! A98   A(29,32,72)           120.857          estimate D2E/DX2                !
 ! A99   A(68,32,72)           118.1738         estimate D2E/DX2                !
 ! A100  A(28,33,63)           121.0047         estimate D2E/DX2                !
 ! A101  A(28,33,67)           120.8239         estimate D2E/DX2                !
 ! A102  A(63,33,67)           118.1706         estimate D2E/DX2                !
 ! A103  A(26,34,43)           120.9395         estimate D2E/DX2                !
 ! A104  A(26,34,47)           120.8475         estimate D2E/DX2                !
 ! A105  A(43,34,47)           118.2086         estimate D2E/DX2                !
 ! A106  A(26,35,48)           120.4389         estimate D2E/DX2                !
 ! A107  A(26,35,52)           121.1651         estimate D2E/DX2                !
 ! A108  A(48,35,52)           118.395          estimate D2E/DX2                !
 ! A109  A(27,36,38)           120.9564         estimate D2E/DX2                !
 ! A110  A(27,36,42)           120.8261         estimate D2E/DX2                !
 ! A111  A(38,36,42)           118.2091         estimate D2E/DX2                !
 ! A112  A(27,37,53)           119.7286         estimate D2E/DX2                !
 ! A113  A(27,37,57)           121.1777         estimate D2E/DX2                !
 ! A114  A(53,37,57)           119.0937         estimate D2E/DX2                !
 ! A115  A(36,38,39)           121.2414         estimate D2E/DX2                !
 ! A116  A(36,38,103)          119.3158         estimate D2E/DX2                !
 ! A117  A(39,38,103)          119.4413         estimate D2E/DX2                !
 ! A118  A(38,39,40)           119.9368         estimate D2E/DX2                !
 ! A119  A(38,39,102)          118.9816         estimate D2E/DX2                !
 ! A120  A(40,39,102)          121.0761         estimate D2E/DX2                !
 ! A121  A(39,40,41)           119.2184         estimate D2E/DX2                !
 ! A122  A(39,40,94)           124.8212         estimate D2E/DX2                !
 ! A123  A(41,40,94)           115.9602         estimate D2E/DX2                !
 ! A124  A(40,41,42)           120.5077         estimate D2E/DX2                !
 ! A125  A(40,41,98)           118.7157         estimate D2E/DX2                !
 ! A126  A(42,41,98)           120.7688         estimate D2E/DX2                !
 ! A127  A(36,42,41)           120.8766         estimate D2E/DX2                !
 ! A128  A(36,42,99)           119.371          estimate D2E/DX2                !
 ! A129  A(41,42,99)           119.7523         estimate D2E/DX2                !
 ! A130  A(34,43,44)           121.2498         estimate D2E/DX2                !
 ! A131  A(34,43,100)          119.3958         estimate D2E/DX2                !
 ! A132  A(44,43,100)          119.352          estimate D2E/DX2                !
 ! A133  A(43,44,45)           119.9605         estimate D2E/DX2                !
 ! A134  A(43,44,101)          118.9643         estimate D2E/DX2                !
 ! A135  A(45,44,101)          121.0712         estimate D2E/DX2                !
 ! A136  A(44,45,46)           119.1847         estimate D2E/DX2                !
 ! A137  A(44,45,95)           124.8435         estimate D2E/DX2                !
 ! A138  A(46,45,95)           115.9717         estimate D2E/DX2                !
 ! A139  A(45,46,47)           120.5186         estimate D2E/DX2                !
 ! A140  A(45,46,104)          118.587          estimate D2E/DX2                !
 ! A141  A(47,46,104)          120.8901         estimate D2E/DX2                !
 ! A142  A(34,47,46)           120.8673         estimate D2E/DX2                !
 ! A143  A(34,47,105)          119.3428         estimate D2E/DX2                !
 ! A144  A(46,47,105)          119.7879         estimate D2E/DX2                !
 ! A145  A(35,48,49)           121.5415         estimate D2E/DX2                !
 ! A146  A(35,48,141)          120.5471         estimate D2E/DX2                !
 ! A147  A(49,48,141)          117.9096         estimate D2E/DX2                !
 ! A148  A(48,49,50)           119.8017         estimate D2E/DX2                !
 ! A149  A(48,49,140)          117.7844         estimate D2E/DX2                !
 ! A150  A(50,49,140)          122.3306         estimate D2E/DX2                !
 ! A151  A(49,50,51)           118.5877         estimate D2E/DX2                !
 ! A152  A(49,50,144)          116.7268         estimate D2E/DX2                !
 ! A153  A(51,50,144)          124.6717         estimate D2E/DX2                !
 ! A154  A(50,51,52)           121.1267         estimate D2E/DX2                !
 ! A155  A(50,51,139)          120.1149         estimate D2E/DX2                !
 ! A156  A(52,51,139)          118.7311         estimate D2E/DX2                !
 ! A157  A(35,52,51)           120.5235         estimate D2E/DX2                !
 ! A158  A(35,52,138)          119.7947         estimate D2E/DX2                !
 ! A159  A(51,52,138)          119.6818         estimate D2E/DX2                !
 ! A160  A(37,53,54)           120.9362         estimate D2E/DX2                !
 ! A161  A(37,53,135)          118.6826         estimate D2E/DX2                !
 ! A162  A(54,53,135)          120.3812         estimate D2E/DX2                !
 ! A163  A(53,54,55)           119.7995         estimate D2E/DX2                !
 ! A164  A(53,54,134)          124.5834         estimate D2E/DX2                !
 ! A165  A(55,54,134)          115.6116         estimate D2E/DX2                !
 ! A166  A(54,55,56)           118.8073         estimate D2E/DX2                !
 ! A167  A(54,55,146)          115.8826         estimate D2E/DX2                !
 ! A168  A(56,55,146)          125.3101         estimate D2E/DX2                !
 ! A169  A(55,56,57)           121.13           estimate D2E/DX2                !
 ! A170  A(55,56,136)          119.8862         estimate D2E/DX2                !
 ! A171  A(57,56,136)          118.9763         estimate D2E/DX2                !
 ! A172  A(37,57,56)           120.2204         estimate D2E/DX2                !
 ! A173  A(37,57,137)          119.7779         estimate D2E/DX2                !
 ! A174  A(56,57,137)          119.9996         estimate D2E/DX2                !
 ! A175  A(31,58,59)           120.2211         estimate D2E/DX2                !
 ! A176  A(31,58,129)          119.8267         estimate D2E/DX2                !
 ! A177  A(59,58,129)          119.9509         estimate D2E/DX2                !
 ! A178  A(58,59,60)           121.1773         estimate D2E/DX2                !
 ! A179  A(58,59,128)          118.9341         estimate D2E/DX2                !
 ! A180  A(60,59,128)          119.8797         estimate D2E/DX2                !
 ! A181  A(59,60,61)           118.7709         estimate D2E/DX2                !
 ! A182  A(59,60,142)          125.3184         estimate D2E/DX2                !
 ! A183  A(61,60,142)          115.9106         estimate D2E/DX2                !
 ! A184  A(60,61,62)           119.8243         estimate D2E/DX2                !
 ! A185  A(60,61,126)          115.6062         estimate D2E/DX2                !
 ! A186  A(62,61,126)          124.5645         estimate D2E/DX2                !
 ! A187  A(31,62,61)           120.9605         estimate D2E/DX2                !
 ! A188  A(31,62,127)          118.7206         estimate D2E/DX2                !
 ! A189  A(61,62,127)          120.3186         estimate D2E/DX2                !
 ! A190  A(33,63,64)           121.2377         estimate D2E/DX2                !
 ! A191  A(33,63,111)          119.3705         estimate D2E/DX2                !
 ! A192  A(64,63,111)          119.3902         estimate D2E/DX2                !
 ! A193  A(63,64,65)           119.9748         estimate D2E/DX2                !
 ! A194  A(63,64,110)          118.947          estimate D2E/DX2                !
 ! A195  A(65,64,110)          121.0722         estimate D2E/DX2                !
 ! A196  A(64,65,66)           119.2121         estimate D2E/DX2                !
 ! A197  A(64,65,92)           124.8038         estimate D2E/DX2                !
 ! A198  A(66,65,92)           115.9842         estimate D2E/DX2                !
 ! A199  A(65,66,67)           120.4855         estimate D2E/DX2                !
 ! A200  A(65,66,112)          118.7157         estimate D2E/DX2                !
 ! A201  A(67,66,112)          120.792          estimate D2E/DX2                !
 ! A202  A(33,67,66)           120.9084         estimate D2E/DX2                !
 ! A203  A(33,67,113)          119.3198         estimate D2E/DX2                !
 ! A204  A(66,67,113)          119.7716         estimate D2E/DX2                !
 ! A205  A(32,68,69)           120.8733         estimate D2E/DX2                !
 ! A206  A(32,68,109)          119.3524         estimate D2E/DX2                !
 ! A207  A(69,68,109)          119.7722         estimate D2E/DX2                !
 ! A208  A(68,69,70)           120.5372         estimate D2E/DX2                !
 ! A209  A(68,69,108)          120.8718         estimate D2E/DX2                !
 ! A210  A(70,69,108)          118.5867         estimate D2E/DX2                !
 ! A211  A(69,70,71)           119.1767         estimate D2E/DX2                !
 ! A212  A(69,70,90)           115.9745         estimate D2E/DX2                !
 ! A213  A(71,70,90)           124.8487         estimate D2E/DX2                !
 ! A214  A(70,71,72)           119.9571         estimate D2E/DX2                !
 ! A215  A(70,71,107)          121.0625         estimate D2E/DX2                !
 ! A216  A(72,71,107)          118.9735         estimate D2E/DX2                !
 ! A217  A(32,72,71)           121.2718         estimate D2E/DX2                !
 ! A218  A(32,72,106)          119.3195         estimate D2E/DX2                !
 ! A219  A(71,72,106)          119.4075         estimate D2E/DX2                !
 ! A220  A(30,73,74)           120.2059         estimate D2E/DX2                !
 ! A221  A(30,73,130)          119.9154         estimate D2E/DX2                !
 ! A222  A(74,73,130)          119.8766         estimate D2E/DX2                !
 ! A223  A(73,74,75)           121.1606         estimate D2E/DX2                !
 ! A224  A(73,74,131)          118.8716         estimate D2E/DX2                !
 ! A225  A(75,74,131)          119.9606         estimate D2E/DX2                !
 ! A226  A(74,75,76)           118.8058         estimate D2E/DX2                !
 ! A227  A(74,75,148)          125.3461         estimate D2E/DX2                !
 ! A228  A(76,75,148)          115.8481         estimate D2E/DX2                !
 ! A229  A(75,76,77)           119.7796         estimate D2E/DX2                !
 ! A230  A(75,76,132)          115.6016         estimate D2E/DX2                !
 ! A231  A(77,76,132)          124.6143         estimate D2E/DX2                !
 ! A232  A(30,77,76)           120.9859         estimate D2E/DX2                !
 ! A233  A(30,77,133)          118.6984         estimate D2E/DX2                !
 ! A234  A(76,77,133)          120.3153         estimate D2E/DX2                !
 ! A235  A(70,90,91)           117.3973         estimate D2E/DX2                !
 ! A236  A(90,91,123)          111.5715         estimate D2E/DX2                !
 ! A237  A(90,91,124)          111.555          estimate D2E/DX2                !
 ! A238  A(90,91,125)          105.9583         estimate D2E/DX2                !
 ! A239  A(123,91,124)         109.1062         estimate D2E/DX2                !
 ! A240  A(123,91,125)         109.2976         estimate D2E/DX2                !
 ! A241  A(124,91,125)         109.2748         estimate D2E/DX2                !
 ! A242  A(65,92,93)           117.3634         estimate D2E/DX2                !
 ! A243  A(92,93,114)          111.5922         estimate D2E/DX2                !
 ! A244  A(92,93,115)          111.568          estimate D2E/DX2                !
 ! A245  A(92,93,116)          105.9547         estimate D2E/DX2                !
 ! A246  A(114,93,115)         109.0687         estimate D2E/DX2                !
 ! A247  A(114,93,116)         109.2895         estimate D2E/DX2                !
 ! A248  A(115,93,116)         109.2914         estimate D2E/DX2                !
 ! A249  A(40,94,97)           117.364          estimate D2E/DX2                !
 ! A250  A(45,95,96)           117.3824         estimate D2E/DX2                !
 ! A251  A(95,96,117)          111.5509         estimate D2E/DX2                !
 ! A252  A(95,96,118)          111.5452         estimate D2E/DX2                !
 ! A253  A(95,96,119)          105.9301         estimate D2E/DX2                !
 ! A254  A(117,96,118)         109.1632         estimate D2E/DX2                !
 ! A255  A(117,96,119)         109.2902         estimate D2E/DX2                !
 ! A256  A(118,96,119)         109.2814         estimate D2E/DX2                !
 ! A257  A(94,97,120)          105.9679         estimate D2E/DX2                !
 ! A258  A(94,97,121)          111.5521         estimate D2E/DX2                !
 ! A259  A(94,97,122)          111.5582         estimate D2E/DX2                !
 ! A260  A(120,97,121)         109.3059         estimate D2E/DX2                !
 ! A261  A(120,97,122)         109.2824         estimate D2E/DX2                !
 ! A262  A(121,97,122)         109.0981         estimate D2E/DX2                !
 ! A263  A(61,126,165)         117.3305         estimate D2E/DX2                !
 ! A264  A(76,132,162)         117.344          estimate D2E/DX2                !
 ! A265  A(54,134,163)         117.3194         estimate D2E/DX2                !
 ! A266  A(49,140,164)         116.0509         estimate D2E/DX2                !
 ! A267  A(60,142,143)         117.0189         estimate D2E/DX2                !
 ! A268  A(142,143,150)        105.8284         estimate D2E/DX2                !
 ! A269  A(142,143,151)        111.5631         estimate D2E/DX2                !
 ! A270  A(142,143,152)        111.5609         estimate D2E/DX2                !
 ! A271  A(150,143,151)        109.3928         estimate D2E/DX2                !
 ! A272  A(150,143,152)        109.3522         estimate D2E/DX2                !
 ! A273  A(151,143,152)        109.07           estimate D2E/DX2                !
 ! A274  A(50,144,145)         117.3297         estimate D2E/DX2                !
 ! A275  A(144,145,159)        111.6207         estimate D2E/DX2                !
 ! A276  A(144,145,160)        111.4378         estimate D2E/DX2                !
 ! A277  A(144,145,161)        105.8464         estimate D2E/DX2                !
 ! A278  A(159,145,160)        109.1655         estimate D2E/DX2                !
 ! A279  A(159,145,161)        109.3488         estimate D2E/DX2                !
 ! A280  A(160,145,161)        109.3441         estimate D2E/DX2                !
 ! A281  A(55,146,147)         117.0318         estimate D2E/DX2                !
 ! A282  A(146,147,156)        105.8165         estimate D2E/DX2                !
 ! A283  A(146,147,157)        111.5736         estimate D2E/DX2                !
 ! A284  A(146,147,158)        111.535          estimate D2E/DX2                !
 ! A285  A(156,147,157)        109.3293         estimate D2E/DX2                !
 ! A286  A(156,147,158)        109.3907         estimate D2E/DX2                !
 ! A287  A(157,147,158)        109.1194         estimate D2E/DX2                !
 ! A288  A(75,148,149)         117.1163         estimate D2E/DX2                !
 ! A289  A(148,149,153)        105.8349         estimate D2E/DX2                !
 ! A290  A(148,149,154)        111.5534         estimate D2E/DX2                !
 ! A291  A(148,149,155)        111.5917         estimate D2E/DX2                !
 ! A292  A(153,149,154)        109.365          estimate D2E/DX2                !
 ! A293  A(153,149,155)        109.3276         estimate D2E/DX2                !
 ! A294  A(154,149,155)        109.0922         estimate D2E/DX2                !
 ! A295  A(132,162,169)        105.7243         estimate D2E/DX2                !
 ! A296  A(132,162,170)        111.5611         estimate D2E/DX2                !
 ! A297  A(132,162,171)        111.5079         estimate D2E/DX2                !
 ! A298  A(169,162,170)        109.4431         estimate D2E/DX2                !
 ! A299  A(169,162,171)        109.3929         estimate D2E/DX2                !
 ! A300  A(170,162,171)        109.1365         estimate D2E/DX2                !
 ! A301  A(134,163,166)        105.7367         estimate D2E/DX2                !
 ! A302  A(134,163,167)        111.4863         estimate D2E/DX2                !
 ! A303  A(134,163,168)        111.5796         estimate D2E/DX2                !
 ! A304  A(166,163,167)        109.3966         estimate D2E/DX2                !
 ! A305  A(166,163,168)        109.4524         estimate D2E/DX2                !
 ! A306  A(167,163,168)        109.1157         estimate D2E/DX2                !
 ! A307  A(140,164,175)        110.5028         estimate D2E/DX2                !
 ! A308  A(140,164,176)        111.7371         estimate D2E/DX2                !
 ! A309  A(140,164,177)        105.8431         estimate D2E/DX2                !
 ! A310  A(175,164,176)        109.6908         estimate D2E/DX2                !
 ! A311  A(175,164,177)        109.2753         estimate D2E/DX2                !
 ! A312  A(176,164,177)        109.7035         estimate D2E/DX2                !
 ! A313  A(126,165,172)        105.7294         estimate D2E/DX2                !
 ! A314  A(126,165,173)        111.5683         estimate D2E/DX2                !
 ! A315  A(126,165,174)        111.526          estimate D2E/DX2                !
 ! A316  A(172,165,173)        109.4657         estimate D2E/DX2                !
 ! A317  A(172,165,174)        109.3973         estimate D2E/DX2                !
 ! A318  A(173,165,174)        109.082          estimate D2E/DX2                !
 ! D1    D(5,1,2,3)             -0.6163         estimate D2E/DX2                !
 ! D2    D(5,1,2,18)          -179.2764         estimate D2E/DX2                !
 ! D3    D(6,1,2,3)            121.483          estimate D2E/DX2                !
 ! D4    D(6,1,2,18)           -57.1771         estimate D2E/DX2                !
 ! D5    D(9,1,2,3)           -123.3481         estimate D2E/DX2                !
 ! D6    D(9,1,2,18)            57.9918         estimate D2E/DX2                !
 ! D7    D(2,1,5,4)              0.088          estimate D2E/DX2                !
 ! D8    D(2,1,5,17)          -179.3086         estimate D2E/DX2                !
 ! D9    D(6,1,5,4)           -121.8295         estimate D2E/DX2                !
 ! D10   D(6,1,5,17)            58.7739         estimate D2E/DX2                !
 ! D11   D(9,1,5,4)            122.7499         estimate D2E/DX2                !
 ! D12   D(9,1,5,17)           -56.6467         estimate D2E/DX2                !
 ! D13   D(2,1,6,7)            121.9587         estimate D2E/DX2                !
 ! D14   D(2,1,6,10)           -57.0494         estimate D2E/DX2                !
 ! D15   D(5,1,6,7)           -123.0032         estimate D2E/DX2                !
 ! D16   D(5,1,6,10)            57.9887         estimate D2E/DX2                !
 ! D17   D(9,1,6,7)             -0.3935         estimate D2E/DX2                !
 ! D18   D(9,1,6,10)          -179.4016         estimate D2E/DX2                !
 ! D19   D(2,1,9,8)           -121.8821         estimate D2E/DX2                !
 ! D20   D(2,1,9,25)            59.0637         estimate D2E/DX2                !
 ! D21   D(5,1,9,8)            122.5274         estimate D2E/DX2                !
 ! D22   D(5,1,9,25)           -56.5268         estimate D2E/DX2                !
 ! D23   D(6,1,9,8)              0.138          estimate D2E/DX2                !
 ! D24   D(6,1,9,25)          -178.9162         estimate D2E/DX2                !
 ! D25   D(1,2,3,4)              0.9184         estimate D2E/DX2                !
 ! D26   D(1,2,3,21)          -178.761          estimate D2E/DX2                !
 ! D27   D(18,2,3,4)           179.6811         estimate D2E/DX2                !
 ! D28   D(18,2,3,21)            0.0017         estimate D2E/DX2                !
 ! D29   D(1,2,18,19)          178.626          estimate D2E/DX2                !
 ! D30   D(1,2,18,79)           -1.0702         estimate D2E/DX2                !
 ! D31   D(3,2,18,19)            0.098          estimate D2E/DX2                !
 ! D32   D(3,2,18,79)         -179.5982         estimate D2E/DX2                !
 ! D33   D(2,3,4,5)             -0.8497         estimate D2E/DX2                !
 ! D34   D(2,3,4,14)           179.1064         estimate D2E/DX2                !
 ! D35   D(21,3,4,5)           178.7746         estimate D2E/DX2                !
 ! D36   D(21,3,4,14)           -1.2693         estimate D2E/DX2                !
 ! D37   D(2,3,21,20)           -0.2451         estimate D2E/DX2                !
 ! D38   D(2,3,21,81)         -179.4134         estimate D2E/DX2                !
 ! D39   D(4,3,21,20)         -179.8373         estimate D2E/DX2                !
 ! D40   D(4,3,21,81)            0.9943         estimate D2E/DX2                !
 ! D41   D(3,4,5,1)              0.4473         estimate D2E/DX2                !
 ! D42   D(3,4,5,17)           179.8895         estimate D2E/DX2                !
 ! D43   D(14,4,5,1)          -179.5153         estimate D2E/DX2                !
 ! D44   D(14,4,5,17)           -0.0731         estimate D2E/DX2                !
 ! D45   D(3,4,14,15)          179.6669         estimate D2E/DX2                !
 ! D46   D(3,4,14,82)            0.6487         estimate D2E/DX2                !
 ! D47   D(5,4,14,15)           -0.3806         estimate D2E/DX2                !
 ! D48   D(5,4,14,82)         -179.3989         estimate D2E/DX2                !
 ! D49   D(1,5,17,16)          179.6864         estimate D2E/DX2                !
 ! D50   D(1,5,17,88)           -0.2739         estimate D2E/DX2                !
 ! D51   D(4,5,17,16)            0.3497         estimate D2E/DX2                !
 ! D52   D(4,5,17,88)         -179.6106         estimate D2E/DX2                !
 ! D53   D(1,6,7,8)              0.5082         estimate D2E/DX2                !
 ! D54   D(1,6,7,13)          -179.4735         estimate D2E/DX2                !
 ! D55   D(10,6,7,8)           179.5923         estimate D2E/DX2                !
 ! D56   D(10,6,7,13)           -0.3895         estimate D2E/DX2                !
 ! D57   D(1,6,10,11)          179.4672         estimate D2E/DX2                !
 ! D58   D(1,6,10,89)           -0.3371         estimate D2E/DX2                !
 ! D59   D(7,6,10,11)            0.5572         estimate D2E/DX2                !
 ! D60   D(7,6,10,89)         -179.247          estimate D2E/DX2                !
 ! D61   D(6,7,8,9)             -0.4113         estimate D2E/DX2                !
 ! D62   D(6,7,8,22)           179.3262         estimate D2E/DX2                !
 ! D63   D(13,7,8,9)           179.5673         estimate D2E/DX2                !
 ! D64   D(13,7,8,22)           -0.6952         estimate D2E/DX2                !
 ! D65   D(6,7,13,12)           -0.2193         estimate D2E/DX2                !
 ! D66   D(6,7,13,86)         -179.3105         estimate D2E/DX2                !
 ! D67   D(8,7,13,12)          179.8039         estimate D2E/DX2                !
 ! D68   D(8,7,13,86)            0.7127         estimate D2E/DX2                !
 ! D69   D(7,8,9,1)              0.1525         estimate D2E/DX2                !
 ! D70   D(7,8,9,25)           179.2794         estimate D2E/DX2                !
 ! D71   D(22,8,9,1)          -179.6233         estimate D2E/DX2                !
 ! D72   D(22,8,9,25)           -0.4964         estimate D2E/DX2                !
 ! D73   D(7,8,22,23)         -179.8112         estimate D2E/DX2                !
 ! D74   D(7,8,22,84)            0.997          estimate D2E/DX2                !
 ! D75   D(9,8,22,23)           -0.096          estimate D2E/DX2                !
 ! D76   D(9,8,22,84)         -179.2878         estimate D2E/DX2                !
 ! D77   D(1,9,25,24)          179.519          estimate D2E/DX2                !
 ! D78   D(1,9,25,78)           -0.0841         estimate D2E/DX2                !
 ! D79   D(8,9,25,24)            0.5582         estimate D2E/DX2                !
 ! D80   D(8,9,25,78)         -179.0449         estimate D2E/DX2                !
 ! D81   D(6,10,11,12)          -0.1223         estimate D2E/DX2                !
 ! D82   D(6,10,11,26)         179.7285         estimate D2E/DX2                !
 ! D83   D(89,10,11,12)        179.684          estimate D2E/DX2                !
 ! D84   D(89,10,11,26)         -0.4652         estimate D2E/DX2                !
 ! D85   D(10,11,12,13)         -0.4841         estimate D2E/DX2                !
 ! D86   D(10,11,12,87)        179.5435         estimate D2E/DX2                !
 ! D87   D(26,11,12,13)        179.6644         estimate D2E/DX2                !
 ! D88   D(26,11,12,87)         -0.3079         estimate D2E/DX2                !
 ! D89   D(10,11,26,34)        -37.5478         estimate D2E/DX2                !
[...]
 Alpha virt. eigenvalues --    2.96751   2.97550   2.98532   2.98686   2.98848
 Alpha virt. eigenvalues --    2.99363   2.99394   2.99530   2.99830   3.01125
 Alpha virt. eigenvalues --    3.01411   3.01858   3.03054   3.03948   3.04157
 Alpha virt. eigenvalues --    3.06516   3.06838   3.06891   3.07424   3.07825
 Alpha virt. eigenvalues --    3.09654   3.10690   3.10910   3.11065   3.12298
 Alpha virt. eigenvalues --    3.14986   3.16003   3.18211   3.21003   3.23912
 Alpha virt. eigenvalues --    3.23981   3.25090   3.26842   3.29181   3.30561
 Alpha virt. eigenvalues --    3.30951   3.31307   3.33614   3.33782   3.37558
 Alpha virt. eigenvalues --    3.39192   3.43947   3.44152   3.44155   3.44319
 Alpha virt. eigenvalues --    3.45406   3.46167   3.46360   3.46406   3.53295
 Alpha virt. eigenvalues --    3.53413   3.97258   4.00018   4.00286   4.00299
 Alpha virt. eigenvalues --    4.05863   4.05880   4.05890   4.05943   4.10074
 Alpha virt. eigenvalues --    4.10194   4.10321   4.11194   4.11291   4.11413
 Alpha virt. eigenvalues --    4.12594   4.12668   4.12801   4.12831   4.13899
 Alpha virt. eigenvalues --    4.13960   4.14064   4.14257   4.14372   4.14533
 Alpha virt. eigenvalues --    4.14826   4.14967   4.15487   4.15754   4.16144
 Alpha virt. eigenvalues --    4.16709   4.16845   4.17593   4.18155   4.20056
 Alpha virt. eigenvalues --    4.20801   4.20856   4.20964   4.22190   4.22784
 Alpha virt. eigenvalues --    4.22911   4.23752   4.24164   4.24637   4.24746
 Alpha virt. eigenvalues --    4.24803   4.24863   4.25038   4.25322   4.26325
 Alpha virt. eigenvalues --    4.26501   4.26698   4.26827   4.27619   4.29560
 Alpha virt. eigenvalues --    4.29911   4.30178   4.33531   4.33706   4.33839
 Alpha virt. eigenvalues --    4.34009   4.35428   4.36786   4.37038   4.37099
 Alpha virt. eigenvalues --    4.37291   4.38092   4.38127   4.38223   4.39477
 Alpha virt. eigenvalues --    4.41803   4.42232   4.42667   4.42716   4.43219
 Alpha virt. eigenvalues --    4.43638   4.43754   4.47705   4.49590   4.49911
 Alpha virt. eigenvalues --    4.50070   4.50561   4.53877   4.54569   4.56756
 Alpha virt. eigenvalues --    4.61633   4.63113   4.63582   4.63784   4.65871
 Alpha virt. eigenvalues --    4.78522   4.79828   4.79885   4.80025   4.80633
 Alpha virt. eigenvalues --    4.86131   4.86236   4.90728   4.96718   5.01397
 Alpha virt. eigenvalues --    5.01813   5.01840
          Condensed to atoms (all electrons):
 Mulliken atomic charges:
              1
     1  C   -0.272400
     2  C    0.123289
     3  C    0.072660
     4  C    0.072894
     5  C    0.124151
     6  C    0.124864
     7  C    0.072463
     8  C    0.071920
     9  C    0.125481
    10  C   -0.247839
    11  C    0.293677
    12  C   -0.179293
    13  C   -0.204073
    14  C   -0.204388
    15  C   -0.181918
    16  C    0.294095
    17  C   -0.242730
    18  C   -0.242811
    19  C    0.291601
    20  C   -0.179888
    21  C   -0.204758
    22  C   -0.203964
    23  C   -0.180117
    24  C    0.298621
    25  C   -0.249956
    26  N   -0.666933
    27  N   -0.663930
    28  N   -0.664363
    29  N   -0.665087
    30  C    0.276962
    31  C    0.286907
    32  C    0.278642
    33  C    0.275294
    34  C    0.280128
    35  C    0.282068
    36  C    0.275465
    37  C    0.283418
    38  C   -0.176086
    39  C   -0.207210
    40  C    0.376756
    41  C   -0.184721
    42  C   -0.164490
    43  C   -0.171531
    44  C   -0.204332
    45  C    0.379798
    46  C   -0.192896
    47  C   -0.171433
    48  C   -0.223440
    49  C    0.312510
    50  C    0.346321
    51  C   -0.216387
    52  C   -0.174540
    53  C   -0.252930
    54  C    0.339124
    55  C    0.340500
    56  C   -0.222746
    57  C   -0.188229
    58  C   -0.188847
    59  C   -0.221753
    60  C    0.340016
    61  C    0.339920
    62  C   -0.255603
    63  C   -0.173546
    64  C   -0.206680
    65  C    0.376895
    66  C   -0.185623
    67  C   -0.167128
    68  C   -0.172306
    69  C   -0.193332
    70  C    0.378779
    71  C   -0.206457
    72  C   -0.174351
    73  C   -0.180814
    74  C   -0.213696
    75  C    0.339049
    76  C    0.338806
    77  C   -0.252381
    78  H    0.149866
    79  H    0.148607
    80  H    0.138622
    81  H    0.126676
    82  H    0.126602
    83  H    0.138839
    84  H    0.126836
    85  H    0.138605
    86  H    0.127077
    87  H    0.136668
    88  H    0.148984
    89  H    0.149603
    90  O   -0.509504
    91  C   -0.213154
    92  O   -0.510611
    93  C   -0.212667
    94  O   -0.510640
    95  O   -0.509758
    96  C   -0.213270
    97  C   -0.212605
    98  H    0.137567
    99  H    0.146093
   100  H    0.142960
   101  H    0.131605
   102  H    0.130944
   103  H    0.144425
   104  H    0.143022
   105  H    0.150362
   106  H    0.144079
   107  H    0.131744
   108  H    0.143509
   109  H    0.150642
   110  H    0.131152
   111  H    0.145328
   112  H    0.137696
   113  H    0.145319
   114  H    0.150228
   115  H    0.148853
   116  H    0.167614
   117  H    0.150480
   118  H    0.150427
   119  H    0.167872
   120  H    0.167519
   121  H    0.148710
   122  H    0.150400
   123  H    0.148156
   124  H    0.151995
   125  H    0.168482
   126  O   -0.502126
   127  H    0.144468
   128  H    0.137258
   129  H    0.146501
   130  H    0.140762
   131  H    0.132397
   132  O   -0.501791
   133  H    0.143468
   134  O   -0.502012
   135  H    0.144325
   136  H    0.138743
   137  H    0.146416
   138  H    0.144050
   139  H    0.133951
   140  O   -0.521999
   141  H    0.146779
   142  O   -0.501794
   143  C   -0.213482
   144  O   -0.511054
   145  C   -0.213765
   146  O   -0.501843
   147  C   -0.214040
   148  O   -0.501229
   149  C   -0.212495
   150  H    0.167236
   151  H    0.150549
   152  H    0.148887
   153  H    0.168384
   154  H    0.148854
   155  H    0.148327
   156  H    0.167369
   157  H    0.149515
   158  H    0.151638
   159  H    0.150731
   160  H    0.152607
   161  H    0.168935
   162  C   -0.213898
   163  C   -0.213625
   164  C   -0.210106
   165  C   -0.213842
   166  H    0.167430
   167  H    0.150871
   168  H    0.152419
   169  H    0.168497
   170  H    0.153133
   171  H    0.150098
   172  H    0.167321
   173  H    0.154272
   174  H    0.149423
   175  H    0.137280
   176  H    0.162468
   177  H    0.156638
 Sum of Mulliken atomic charges =   0.00000
 Mulliken charges with hydrogens summed into heavy atoms:
              1
     1  C   -0.272400
     2  C    0.123289
     3  C    0.072660
     4  C    0.072894
     5  C    0.124151
     6  C    0.124864
     7  C    0.072463
     8  C    0.071920
     9  C    0.125481
    10  C   -0.098236
    11  C    0.293677
    12  C   -0.042624
    13  C   -0.076996
    14  C   -0.077787
    15  C   -0.043079
    16  C    0.294095
    17  C   -0.093746
    18  C   -0.094203
    19  C    0.291601
    20  C   -0.041266
    21  C   -0.078081
    22  C   -0.077127
    23  C   -0.041512
    24  C    0.298621
    25  C   -0.100089
    26  N   -0.666933
    27  N   -0.663930
    28  N   -0.664363
    29  N   -0.665087
    30  C    0.276962
    31  C    0.286907
    32  C    0.278642
    33  C    0.275294
    34  C    0.280128
    35  C    0.282068
    36  C    0.275465
    37  C    0.283418
    38  C   -0.031661
    39  C   -0.076266
    40  C    0.376756
    41  C   -0.047154
    42  C   -0.018397
    43  C   -0.028571
    44  C   -0.072727
    45  C    0.379798
    46  C   -0.049873
    47  C   -0.021071
    48  C   -0.076661
    49  C    0.312510
    50  C    0.346321
    51  C   -0.082435
    52  C   -0.030490
    53  C   -0.108605
    54  C    0.339124
    55  C    0.340500
    56  C   -0.084003
    57  C   -0.041813
    58  C   -0.042346
    59  C   -0.084495
    60  C    0.340016
    61  C    0.339920
    62  C   -0.111136
    63  C   -0.028218
    64  C   -0.075528
    65  C    0.376895
    66  C   -0.047927
    67  C   -0.021809
    68  C   -0.021664
    69  C   -0.049823
    70  C    0.378779
    71  C   -0.074713
    72  C   -0.030272
    73  C   -0.040052
    74  C   -0.081298
    75  C    0.339049
    76  C    0.338806
    77  C   -0.108912
    90  O   -0.509504
    91  C    0.255478
    92  O   -0.510611
    93  C    0.254028
    94  O   -0.510640
    95  O   -0.509758
    96  C    0.255509
    97  C    0.254024
   126  O   -0.502126
   132  O   -0.501791
   134  O   -0.502012
   140  O   -0.521999
   142  O   -0.501794
   143  C    0.253190
   144  O   -0.511054
   145  C    0.258508
   146  O   -0.501843
   147  C    0.254481
   148  O   -0.501229
   149  C    0.253070
   162  C    0.257830
   163  C    0.257095
   164  C    0.246281
   165  C    0.257174
 Sum of Mulliken charges with hydrogens summed into heavy atoms =   0.00000
 Electronic spatial extent (au):  <R**2>=         129988.4713
 Charge=              0.0000 electrons
 Dipole moment (field-independent basis, Debye):
    X=              0.6191    Y=              0.7509    Z=              0.9889  Tot=              1.3874
 Quadrupole moment (field-independent basis, Debye-Ang):
   XX=           -500.4159   YY=           -551.3433   ZZ=           -537.1907
   XY=             -9.2615   XZ=             -8.3631   YZ=             10.7710
 Traceless Quadrupole moment (field-independent basis, Debye-Ang):
   XX=             29.2341   YY=            -21.6933   ZZ=             -7.5408
   XY=             -9.2615   XZ=             -8.3631   YZ=             10.7710
 Octapole moment (field-independent basis, Debye-Ang**2):
  XXX=            155.4925  YYY=            171.2672  ZZZ=            -10.0031  XYY=           -261.9593
  XXY=            -44.1708  XXZ=             58.0022  XZZ=            121.9624  YZZ=            108.0304
  YYZ=             89.8372  XYZ=             50.0374
 Hexadecapole moment (field-independent basis, Debye-Ang**3):
 XXXX=         -72045.1692 YYYY=         -66806.7832 ZZZZ=         -25139.6306 XXXY=          -2587.0669
 XXXZ=           -316.6498 YYYX=            778.1161 YYYZ=           1533.5762 ZZZX=           -538.0065
 ZZZY=             77.9213 XXYY=         -21343.1169 XXZZ=         -14307.2095 YYZZ=         -14677.2280
 XXYZ=             35.6895 YYXZ=           -847.0763 ZZXY=             48.2963
 N-N= 1.887937311859D+04 E-N=-4.800630257855D+04  KE= 4.365246102145D+03
 Leave Link  601 at Sat Aug  9 03:01:42 2014, MaxMem= 2147483648 cpu:      55.2
 (Enter /opt/g09/l9999.exe)
 1\1\GINC-CHPC-SCANDIUM\FOpt\RB3LYP\6-31G(d)\C85H76N4O12\JARVIST\09-Aug
 -2014\0\\#p opt b3lyp/6-31g*\\Auto Spiro\\0,1\C,12.7923497496,11.73321
 52618,12.7713731922\C,11.4802983434,11.022246468,12.4186990944\C,11.72
 24672305,9.6749565114,12.0842015173\C,13.1582639276,9.4115442018,12.19
 6359506\C,13.8080928668,10.5983845972,12.5898887339\C,13.0874750007,12
 .9620081412,11.9029158992\C,13.2439784263,14.108655781,12.705958554\C,
 13.0695033529,13.7293877594,14.1091303286\C,12.7993570583,12.348832498
 4,14.1758808284\C,13.189135804,13.0280153051,10.522514141\C,13.4729188
 867,14.2646124494,9.9107847837\C,13.6414800715,15.4085313551,10.715503
 3766\C,13.5188075373,15.3377461991,12.1009650214\C,13.9113918067,8.253
 7409976,11.9887540145\C,15.2929905563,8.2923973481,12.1646970474\C,15.
 9421470362,9.4769058789,12.5636150006\C,15.1793927112,10.6417602133,12
 .7792641594\C,10.201172405,11.553465226,12.3922317674\C,9.118698267,10
 .7261513297,12.0339860049\C,9.3605157376,9.3780025693,11.7063453747\C,
 10.6513273184,8.8543787053,11.7226143651\C,13.1276484236,14.4747032919
 ,15.2896632934\C,12.9084271274,13.8439237652,16.5114677328\C,12.646327
 7321,12.4609896811,16.5798908149\C,12.5971747645,11.7101835665,15.3889
 031058\N,13.5924978868,14.3594385948,8.5001825727\N,17.3477034678,9.49
 7266406,12.751135459\N,7.798718,11.2456347388,12.0009539258\N,12.43190
 07734,11.836613135,17.8343539137\C,13.2093444393,12.2151902861,18.9661
 212096\C,7.3461734085,12.1192961127,13.0289276539\C,11.4735186652,10.7
 935601006,17.9646559541\C,6.9114422141,10.8703530946,10.9548267639\C,1
 4.2235386047,13.3185281796,7.762847566\C,13.0492515209,15.4770329454,7
 .8087338966\C,18.0050798701,8.3820670583,13.3400507831\C,18.1152812054
 ,10.6067823082,12.2964614665\C,19.1906376692,7.872842791,12.7976581432
 \C,19.8519444848,6.7935941665,13.3891629958\C,19.3171048282,6.18748484
 96,14.5306486007\C,18.1233215748,6.6841661928,15.0746604872\C,17.48400
 00585,7.7707728625,14.4954441326\C,13.6682136108,12.8440774134,6.56939
 62148\C,14.2972832199,11.8435085368,5.825181679\C,15.4918815808,11.279
 0025926,6.283454119\C,16.0480448361,11.7377992123,7.4869326558\C,15.42
 99674209,12.7488373044,8.2096005093\C,13.7719697342,16.0934010467,6.77
 25456003\C,13.2499049571,17.1736234661,6.0717863944\C,11.9773716138,17
 .6878812093,6.4092171956\C,11.2700422973,17.0931899005,7.4565962281\C,
 11.7918982464,15.9922540652,8.1403276711\C,19.1381862889,11.1302892645
 ,13.1125496364\C,19.9133072678,12.2033905232,12.6864006654\C,19.658978
 4603,12.801772962,11.4256958406\C,18.637354831,12.287479546,10.6316738
 856\C,17.8759179774,11.1900847568,11.0534564246\C,7.6488039779,11.8762
 822811,14.3679717178\C,7.2007056795,12.7547210577,15.3623861371\C,6.42
 71397512,13.8678720081,15.0440211144\C,6.1059760997,14.1113046286,13.6
 843587758\C,6.5758703962,13.2519378691,12.6968860712\C,7.3420399848,10
 .8426200006,9.6229296618\C,6.4791891246,10.4672103971,8.5909420457\C,5
 .1505689627,10.1353015546,8.8773428527\C,4.7071032747,10.171862418,10.
 2073047321\C,5.576378182,10.5229968488,11.2307530334\C,10.1956819993,1
 0.9119279499,17.3869393394\C,9.2582402937,9.8973043613,17.521971372\C,
 9.5600401237,8.7407440234,18.2566279811\C,10.8235246004,8.615488157,18
 .8431350696\C,11.7700198039,9.63048832,18.6843321134\C,14.5882373547,1
 2.392423999,18.869079272\C,15.3305032705,12.7760320683,19.9928521085\C
 ,14.7179800986,12.9611274271,21.2293243647\C,13.3161234833,12.77054190
 63,21.335368215\C,12.5790655538,12.4158790169,20.2107011491\H,12.40623
 98849,10.6425441822,15.429982028\H,10.0241365774,12.5949403641,12.6417
 51756\H,8.5218330314,8.7426609258,11.440508824\H,10.810868041,7.809278
 1453,11.4689864976\H,13.4351611699,7.3273936093,11.6771227192\H,15.885
 662135,7.4001787581,11.9906575617\H,13.3261342122,15.5433542128,15.264
 8791264\H,12.9379026695,14.4198169338,17.4305925139\H,13.6542620223,16
 .2353842727,12.6991934135\H,13.8710848944,16.3567950089,10.2404652566\
 H,15.6707953412,11.5574711352,13.0926513375\H,13.0505661339,12.1417931
 661,9.9113421808\O,8.5616891081,7.8095768723,18.3407859203\C,8.8280079
 368,6.6099879765,19.0465114878\O,4.2174731234,9.7662682026,7.946536588
 6\C,4.6179464862,9.7101308225,6.5886965738\O,19.8733055268,5.122282501
 3,15.1857984783\O,16.1879124333,10.2916449723,5.642119052\C,15.6597878
 442,9.7859806424,4.4282517117\C,21.0752298841,4.5775133865,14.67019154
 79\H,17.7219741085,6.2103000419,15.9652577128\H,16.568178659,8.1550111
 09,14.9336110244\H,12.7355913807,13.2676045519,6.2102179574\H,13.83787
 11228,11.5092695725,4.9018895896\H,20.7699668215,6.4302537544,12.94101
 17828\H,19.605445904,8.3290302104,11.904282099\H,16.9777510129,11.2934
 933888,7.8298588708\H,15.8756164763,13.0996611038,9.1353144028\H,12.75
 24908278,9.5182676627,19.1320232714\H,11.0920387427,7.731829662,19.411
 0877115\H,8.2726002094,9.9835155827,17.0742180106\H,9.9463088967,11.80
 42702834,16.8209871298\H,6.8527715165,10.4529092135,7.5732261542\H,8.3
 67621204,11.1113761167,9.3897259632\H,3.6763369953,9.9037483074,10.418
 2476777\H,5.2256050902,10.5334079432,12.2579005288\H,5.4257928014,8.98
 19125156,6.4340294763\H,4.9468095224,10.6920384786,6.2216691259\H,3.73
 63572709,9.3938209975,6.0276626079\H,15.5839668353,10.5692079644,3.661
 6631997\H,14.6705132921,9.3316500621,4.5751252416\H,16.3608501372,9.01
 98078085,4.0915058895\H,21.3395713153,3.7508405139,15.3325795636\H,21.
 8887534589,5.3159114565,14.6712654477\H,20.9417177745,4.1944649102,13.
 6493141965\H,9.0624139146,6.8037444449,20.1022708368\H,9.6563057829,6.
 0488436075,18.5931969807\H,7.9143668008,6.0155941123,18.9846213188\O,5
 .3475381597,15.2202835333,13.4504825772\H,6.3531174759,13.4417087691,1
 1.6545194148\H,7.4493016964,12.5447397873,16.3966580429\H,8.2385036817
 ,11.0079681828,14.6415501466\H,15.0882145999,12.2377030782,17.91897411
 58\H,16.4012561893,12.9112213859,19.891002273\O,12.789073071,12.975361
 804,22.5762355998\H,11.5062427968,12.2849769803,20.2762318915\O,20.925
 397773,12.764346222,13.4080967633\H,19.3113922763,10.6791840976,14.081
 4544228\H,18.4325409624,12.7246947999,9.6608993854\H,17.0929842801,10.
 7987039733,10.4127345495\H,11.215554383,15.5336893705,8.936922403\H,10
 .2902709689,17.4641587867,7.7358567575\O,13.9775421736,17.6835202561,5
 .0226023163\H,14.7520513399,15.726502046,6.487720368\O,5.9335963543,14
 .7709583714,15.9411587296\C,6.2320154923,14.5678864817,17.3102646631\O
 ,11.527960478,18.7403829129,5.6576029319\C,10.2308712595,19.2434319769
 ,5.9289141873\O,20.461678835,13.855591875,11.096849057\C,20.2400688212
 ,14.4873364556,9.8488047652\O,15.3559074233,13.3173432194,22.382629420
 4\C,16.7578528677,13.5073212035,22.3277814209\H,5.7581728013,15.393331
 6094,17.8451638622\H,7.3146194583,14.5884251534,17.4968703277\H,5.8240
 896576,13.6162966875,17.6784067646\H,17.0625847017,13.7792556048,23.34
 0270061\H,17.0313254828,14.3172542139,21.6374056502\H,17.2806218593,12
 .5890835755,22.026224857\H,20.971011846,15.2961111008,9.7893812402\H,2
 0.3965413784,13.7955292519,9.0096449008\H,19.227324338,14.907828706,9.
 7810308995\H,10.156137658,19.6470681448,6.9478503962\H,9.4628779377,18
 .4705318801,5.7920722424\H,10.0651161523,20.0479341233,5.20984218\C,11
 .3945771149,12.789138453,22.7444488637\C,21.2230855613,12.2084111342,1
 4.6767441818\C,14.480343728,19.0093326973,5.1982361617\C,4.9807354375,
 15.5034833239,12.1116155932\H,22.0607755982,12.7894761486,15.067328167
 6\H,20.3715175208,12.2916392441,15.3657195046\H,21.5173175032,11.15305
 57592,14.5984041517\H,11.1933134412,12.9841452965,23.7995621485\H,11.0
 902501291,11.7626763831,22.4993409326\H,10.8146113773,13.4906694508,22
 .1293775167\H,4.3659381483,16.4046004646,12.1556662021\H,4.3965085989,
 14.6852468044,11.6695407022\H,5.8603067555,15.6954650434,11.4819887426
 \H,15.1271466164,19.0671817766,6.0842858876\H,13.669966064,19.73907987
 93,5.2879062146\H,15.0723662737,19.2271190363,4.3060550687\\Version=EM
 64L-G09RevA.02\State=1-A\HF=-4406.3628131\RMSD=3.437e-09\RMSF=2.015e-0
 6\Dipole=0.1181867,-0.302623,-0.4386554\Quadrupole=-9.4196382,1.807070
 8,7.6125674,-13.6073499,13.998693,-8.7227326\PG=C01 [X(C85H76N4O12)]\\
 @


 A ROPE OVER THE TOP OF A FENCE HAS THE SAME LENGTH ON EACH SIDE.
 WEIGHS 1/3 POUND PER FOOT.  ON ONE END HANGS A MONKEY HOLDING A
 BANANA, AND ON THE OTHER END A WEIGHT EQUAL TO THE WEIGHT
 OF THE MONKEY.  THE BANANA WEIGHS TWO OUNCES PER INCH.
 THE ROPE IS AS LONG AS THE AGE OF THE MONKEY, 
 AND THE WEIGHT OF THE MONKEY (IN OUNCES) IS AS MUCH
 AS THE AGE OF THE MONKEY'S MOTHER.  THE COMBINED AGES OF MONKEY
 AND MOTHER ARE THIRTY YEARS.  HALF THE WEIGHT OF THE MONKEY,
  PLUS THE WEIGHT OF THE BANANA, IS ONE FOURTH AS MUCH AS THE WEIGHT
 OF THE WEIGHT AND THE ROPE.
 THE MONKEY'S MOTHER IS HALF AS OLD AS THE MONKEY WILL BE
 WHEN IT IS 3 TIMES AS OLD AS ITS MOTHER WAS WHEN
 SHE WAS HALF AS OLD AS THE MONKEY WILL BE WHEN IT IS
 AS OLD AS ITS MOTHER WILL BE WHEN SHE IS 4 TIMES AS
 OLD AS THE MONKEY WAS WHEN IT WAS TWICE AS OLD AS 
 ITS MOTHER WAS WHEN SHE WAS ONE THIRD AS OLD AS THE
 MONKEY WAS WHEN IT WAS AS OLD AS ITS MOTHER WAS WHEN 
 SHE WAS 3 TIMES AS OLD AS THE MONKEY WAS WHEN IT WAS AS OLD AS ITS
 MOTHER WAS WHEN SHE WAS 3 TIMES AS OLD AS THE MONKEY 
 WAS WHEN IT WAS ONE FOURTH WAS OLD AS IT IS NOW.

 HOW LONG IS THE BANANA?
 Job cpu time:  3 days 22 hours  8 minutes 52.2 seconds.
 File lengths (MBytes):  RWF=   1717 Int=      0 D2E=      0 Chk=    170 Scr=      1
 Normal termination of Gaussian 09 at Sat Aug  9 03:01:43 2014.
