 Entering Gaussian System, Link 0=g09
 Input=sp_12_B3LYP_cc-pVDZ.com
 Output=sp_12_B3LYP_cc-pVDZ.log
 Initial command:
 /opt/g09/l1.exe /home/jarvist/2014-07_SPIRO/b3lyp-631gs_opt/delta_scf/neutral/Gau-2692.inp -scrdir=/home/jarvist/2014-07_SPIRO/b3lyp-631gs_opt/delta_scf/neutral/
 Default is to use a total of   8 processors:
                                8 via shared-memory
                                1 via Linda
 Entering Link 1 = /opt/g09/l1.exe PID=      2694.
  
 Copyright (c) 1988,1990,1992,1993,1995,1998,2003,2009, Gaussian, Inc.
                  All Rights Reserved.
  
 This is part of the Gaussian(R) 09 program.  It is based on
 the Gaussian(R) 03 system (copyright 2003, Gaussian, Inc.),
 the Gaussian(R) 98 system (copyright 1998, Gaussian, Inc.),
 the Gaussian(R) 94 system (copyright 1995, Gaussian, Inc.),
 the Gaussian 92(TM) system (copyright 1992, Gaussian, Inc.),
 the Gaussian 90(TM) system (copyright 1990, Gaussian, Inc.),
 the Gaussian 88(TM) system (copyright 1988, Gaussian, Inc.),
 the Gaussian 86(TM) system (copyright 1986, Carnegie Mellon
 University), and the Gaussian 82(TM) system (copyright 1983,
 Carnegie Mellon University). Gaussian is a federally registered
 trademark of Gaussian, Inc.
  
 This software contains proprietary and confidential information,
 including trade secrets, belonging to Gaussian, Inc.
  
 This software is provided under written license and may be
 used, copied, transmitted, or stored only in accord with that
 written license.
  
 The following legend is applicable only to US Government
 contracts under FAR:
  
                    RESTRICTED RIGHTS LEGEND
  
 Use, reproduction and disclosure by the US Government is
 subject to restrictions as set forth in subparagraphs (a)
 and (c) of the Commercial Computer Software - Restricted
 Rights clause in FAR 52.227-19.
  
 Gaussian, Inc.
 340 Quinnipiac St., Bldg. 40, Wallingford CT 06492
  
  
 ---------------------------------------------------------------
 Warning -- This program may not be used in any manner that
 competes with the business of Gaussian, Inc. or will provide
 assistance to any competitor of Gaussian, Inc.  The licensee
 of this program is prohibited from giving any competitor of
 Gaussian, Inc. access to this program.  By using this program,
 the user acknowledges that Gaussian, Inc. is engaged in the
 business of creating and licensing software in the field of
 computational chemistry and represents and warrants to the
 licensee that it is not a competitor of Gaussian, Inc. and that
 it will not use this program in any manner prohibited above.
 ---------------------------------------------------------------
  

 Cite this work as:
 Gaussian 09, Revision A.02,
 M. J. Frisch, G. W. Trucks, H. B. Schlegel, G. E. Scuseria, 
 M. A. Robb, J. R. Cheeseman, G. Scalmani, V. Barone, B. Mennucci, 
 G. A. Petersson, H. Nakatsuji, M. Caricato, X. Li, H. P. Hratchian, 
 A. F. Izmaylov, J. Bloino, G. Zheng, J. L. Sonnenberg, M. Hada, 
 M. Ehara, K. Toyota, R. Fukuda, J. Hasegawa, M. Ishida, T. Nakajima, 
 Y. Honda, O. Kitao, H. Nakai, T. Vreven, J. A. Montgomery, Jr., 
 J. E. Peralta, F. Ogliaro, M. Bearpark, J. J. Heyd, E. Brothers, 
 K. N. Kudin, V. N. Staroverov, R. Kobayashi, J. Normand, 
 K. Raghavachari, A. Rendell, J. C. Burant, S. S. Iyengar, J. Tomasi, 
 M. Cossi, N. Rega, J. M. Millam, M. Klene, J. E. Knox, J. B. Cross, 
 V. Bakken, C. Adamo, J. Jaramillo, R. Gomperts, R. E. Stratmann, 
 O. Yazyev, A. J. Austin, R. Cammi, C. Pomelli, J. W. Ochterski, 
 R. L. Martin, K. Morokuma, V. G. Zakrzewski, G. A. Voth, 
 P. Salvador, J. J. Dannenberg, S. Dapprich, A. D. Daniels, 
 O. Farkas, J. B. Foresman, J. V. Ortiz, J. Cioslowski, 
 and D. J. Fox, Gaussian, Inc., Wallingford CT, 2009.
 
 ******************************************
 Gaussian 09:  EM64L-G09RevA.02 11-Jun-2009
                 3-Feb-2015 
 ******************************************
 %mem=16GB
 %nprocs=24
 Will use up to   24 processors via shared memory.
 Default route:  MaxDisk=100GB
 -------------------
 #p sp B3LYP/cc-pVDZ
 -------------------
 1/38=1/1;
 2/12=2,17=6,18=5,40=1/2;
 3/5=16,11=2,16=1,25=1,30=1,74=-5/1,2,3;
 4//1;
 5/5=2,38=5/2;
 6/7=2,8=2,9=2,10=2,28=1/1;
 99/5=1,9=1/99;
 Leave Link    1 at Tue Feb  3 19:47:52 2015, MaxMem= 2147483648 cpu:       2.0
 (Enter /opt/g09/l101.exe)
 ------------------------------------------
 Auto Spiro; and yes I said yes I will Yes.
 ------------------------------------------
 Symbolic Z-matrix:
 Charge =  0 Multiplicity = 1
 C                     0.17579  -0.13131   0.01394 
 C                    -0.39916  -1.18937  -0.93935 
 C                    -0.15258  -0.83182  -2.27795 
 C                     0.55047   0.4533   -2.3013 
 C                     0.73712   0.89204  -0.9754 
 C                    -0.875     0.40464   0.99084 
 C                    -0.51125   0.1081    2.31941 
 C                     0.78487  -0.57395   2.31116 
 C                     1.22689  -0.69292   0.97996 
 C                    -2.06574   1.04831   0.69485 
 C                    -2.91566   1.4392    1.74645 
 C                    -2.54277   1.16223   3.07519 
 C                    -1.35663   0.49041   3.36396 
 C                     1.00863   1.24613  -3.3565 
 C                     1.6364    2.45883  -3.081 
 C                     1.83959   2.88799  -1.75564 
 C                     1.38504   2.08414  -0.69333 
 C                    -1.11988  -2.32688  -0.61123 
 C                    -1.60773  -3.1568   -1.64035 
 C                    -1.30909  -2.82945  -2.98033 
 C                    -0.60193  -1.67241  -3.29981 
 C                     1.59304  -1.05811   3.34228 
 C                     2.82767  -1.62576   3.03939 
 C                     3.29889  -1.68855   1.71115 
 C                     2.46997  -1.22203   0.67077 
 N                    -4.14484   2.10025   1.47335 
 N                     2.50065   4.11981  -1.49864 
 N                    -2.3809   -4.30183  -1.33365 
 N                     4.59581  -2.19508   1.44793 
 C                     5.63754  -1.99659   2.40553 
 C                    -2.1826   -4.9747   -0.09118 
 C                     4.93592  -2.79166   0.20138 
 C                    -3.43769  -4.74615  -2.17563 
 C                    -4.2144    3.09127   0.45774 
 C                    -5.31287   1.73755   2.19855 
 C                     3.63883   4.48648  -2.27094 
 C                     2.06593   4.96216  -0.44144 
 C                     3.77753   5.80353  -2.74671 
 C                     4.89407   6.14496  -3.49942 
 C                     5.881     5.20453  -3.81334 
 C                     5.73462   3.89399  -3.34432 
 C                     4.62369   3.54109  -2.5675 
 C                    -5.32228   3.1502   -0.39288 
 C                    -5.40613   4.13382  -1.3857 
 C                    -4.36929   5.05797  -1.55525 
 C                    -3.25851   4.97999  -0.70874 
 C                    -3.17029   4.02176   0.29406 
 C                    -6.18559   2.72453   2.6648 
 C                    -7.34424   2.37423   3.36852 
 C                    -7.63017   1.03      3.63478 
 C                    -6.74267   0.05191   3.17409 
 C                    -5.59987   0.38398   2.45686 
 C                     3.00075   5.62482   0.35967 
 C                     2.58046   6.47439   1.39041 
 C                     1.21708   6.65326   1.64861 
 C                     0.29076   5.97345   0.8505 
 C                     0.6919    5.14327  -0.18898 
 C                    -0.98682  -5.64447   0.17149 
 C                    -0.77512  -6.3034    1.38374 
 C                    -1.78452  -6.30516   2.34321 
 C                    -2.9919   -5.6431    2.10435 
 C                    -3.19584  -4.96428   0.89787 
 C                    -4.26194  -3.81691  -2.83558 
 C                    -5.29972  -4.26463  -3.65409 
 C                    -5.54287  -5.63885  -3.80609 
 C                    -4.73407  -6.54654  -3.13418 
 C                    -3.67796  -6.11656  -2.32692 
 C                     4.05787  -3.70206  -0.41546 
 C                     4.40692  -4.28512  -1.63692 
 C                     5.64078  -3.99376  -2.23741 
 C                     6.50417  -3.10245  -1.61298 
 C                     6.16133  -2.48925  -0.40693 
 C                     5.8754   -0.73409   2.9584 
 C                     6.90266  -0.5775    3.89232 
 C                     7.7035   -1.6504    4.26622 
 C                     7.47009  -2.91417   3.70259 
 C                     6.43348  -3.09124   2.78292 
 H                     2.81248  -1.25921  -0.35766 
 H                    -1.33242  -2.56601   0.42546 
 H                    -1.65502  -3.48373  -3.77326 
 H                    -0.40336  -1.43771  -4.3427 
 H                     0.86792   0.93639  -4.38897 
 H                     1.98117   3.08639  -3.89625 
 H                     1.27021  -1.00067   4.37886 
 H                     3.45261  -2.00673   3.83953 
 H                    -1.09214   0.28644   4.3985 
 H                    -3.19615   1.47826   3.88195 
 H                     1.54465   2.40128   0.33222 
 H                    -2.34883   1.24968  -0.33343 
 H                     5.887    -4.46568  -3.18282 
 H                    -6.35844  -5.95986  -4.44569 
 H                     6.73553   5.49801  -4.41129 
 H                    -4.41239   5.82341  -2.32077 
 O                     6.6271    2.8847   -3.57377 
 H                     4.54435   2.52214  -2.2055 
 H                    -6.13593   2.44033  -0.29759 
 O                    -6.53952   4.09183  -2.14958 
 H                     4.99823   7.16239  -3.86741 
 H                     3.01272   6.53924  -2.52333 
 H                    -2.45205   5.69829  -0.83202 
 H                    -2.30606   3.98413   0.94802 
 H                     6.83348  -1.7783    0.06001 
 H                     7.45568  -2.86253  -2.08016 
 O                     3.62008  -5.17055  -2.31712 
 H                     3.1173   -3.93508   0.06741 
 O                    -6.14789  -3.43684  -4.33556 
 H                    -4.08482  -2.76034  -2.68424 
 H                    -4.91553  -7.61197  -3.25026 
 H                    -3.04267  -6.83531  -1.82074 
 O                    -4.32032  -4.2638    0.58995 
 H                     0.16303  -6.81844   1.5681 
 H                    -0.2232   -5.64188  -0.59991 
 H                     5.26384   0.10992   2.65831 
 H                     7.08928   0.40346   4.32112 
 O                     8.29933  -3.91327   4.12692 
 H                     6.22682  -4.05927   2.34394 
 O                     3.58776   7.06994   2.09765 
 H                     4.0646    5.49442   0.19768 
 H                    -0.77013   6.11247   1.0428 
 H                    -0.04241   4.63438  -0.80355 
 H                    -4.93032  -0.38658   2.09063 
 H                    -6.96378  -0.99429   3.37032 
 O                    -8.12155   3.4254    3.76734 
 H                    -5.98332   3.7745    2.48583 
 H                    -1.64046  -6.81979   3.28927 
 H                    -8.51859   0.73917   4.18243 
 H                     0.87164   7.30034   2.44583 
 H                     8.5112   -1.53884   4.98223 
 C                    -5.95081  -2.03605  -4.22873 
 H                    -4.95561  -1.73876  -4.58487 
 H                    -6.07994  -1.68586  -3.19606 
 H                    -6.71302  -1.57756  -4.86178 
 H                    -3.76147  -5.6448    2.86784 
 C                    -5.38887  -4.25239   1.52253 
 H                    -5.76679  -5.26496   1.7149 
 H                    -6.17694  -3.65413   1.06221 
 H                    -5.08944  -3.79146   2.47342 
 C                     2.3169   -5.43127  -1.82314 
 C                     8.12637  -5.20986   3.57779 
 H                     8.89511  -5.83398   4.03744 
 H                     8.26221  -5.20925   2.48829 
 H                     7.1364   -5.6215    3.81574 
 H                     1.85655  -6.11385  -2.54036 
 H                     1.71879  -4.51312  -1.75889 
 H                     2.34751  -5.91301  -0.83595 
 C                     7.79618   3.18087  -4.31859 
 H                     8.36313   2.24927  -4.36863 
 H                     8.40597   3.95026  -3.8262 
 H                     7.55504   3.51219  -5.33763 
 C                     3.23614   7.9148    3.1801 
 H                     4.17875   8.2671    3.60358 
 H                     2.67287   7.37237   3.95125 
 H                     2.64536   8.77806   2.84525 
 C                    -6.67863   5.04272  -3.19168 
 C                    -9.29842   3.14621   4.50663 
 H                    -9.75361   4.11489   4.72177 
 H                    -9.07191   2.63483   5.45191 
 H                    -10.00474   2.5354    3.92849 
 H                    -7.63608   4.8258   -3.66941 
 H                    -5.87433   4.95123  -3.93393 
 H                    -6.69306   6.06998  -2.80354 
 
 NAtoms=    161 NQM=    161 NQMF=      0 NMic=      0 NMicF=      0 NTot=    161.
                    Isotopes and Nuclear Properties:
 (Nuclear quadrupole moments (NQMom) in fm**2, nuclear magnetic moments (NMagM)
  in nuclear magnetons)

  Atom         1           2           3           4           5           6           7           8           9          10
 IAtWgt=          12          12          12          12          12          12          12          12          12          12
 AtmWgt=  12.0000000  12.0000000  12.0000000  12.0000000  12.0000000  12.0000000  12.0000000  12.0000000  12.0000000  12.0000000
 NucSpn=           0           0           0           0           0           0           0           0           0           0
 AtZEff=   0.0000000   0.0000000   0.0000000   0.0000000   0.0000000   0.0000000   0.0000000   0.0000000   0.0000000   0.0000000
 NQMom=    0.0000000   0.0000000   0.0000000   0.0000000   0.0000000   0.0000000   0.0000000   0.0000000   0.0000000   0.0000000
 NMagM=    0.0000000   0.0000000   0.0000000   0.0000000   0.0000000   0.0000000   0.0000000   0.0000000   0.0000000   0.0000000

  Atom        11          12          13          14          15          16          17          18          19          20
 IAtWgt=          12          12          12          12          12          12          12          12          12          12
 AtmWgt=  12.0000000  12.0000000  12.0000000  12.0000000  12.0000000  12.0000000  12.0000000  12.0000000  12.0000000  12.0000000
 NucSpn=           0           0           0           0           0           0           0           0           0           0
 AtZEff=   0.0000000   0.0000000   0.0000000   0.0000000   0.0000000   0.0000000   0.0000000   0.0000000   0.0000000   0.0000000
 NQMom=    0.0000000   0.0000000   0.0000000   0.0000000   0.0000000   0.0000000   0.0000000   0.0000000   0.0000000   0.0000000
 NMagM=    0.0000000   0.0000000   0.0000000   0.0000000   0.0000000   0.0000000   0.0000000   0.0000000   0.0000000   0.0000000

  Atom        21          22          23          24          25          26          27          28          29          30
 IAtWgt=          12          12          12          12          12          14          14          14          14          12
 AtmWgt=  12.0000000  12.0000000  12.0000000  12.0000000  12.0000000  14.0030740  14.0030740  14.0030740  14.0030740  12.0000000
 NucSpn=           0           0           0           0           0           2           2           2           2           0
 AtZEff=   0.0000000   0.0000000   0.0000000   0.0000000   0.0000000   0.0000000   0.0000000   0.0000000   0.0000000   0.0000000
 NQMom=    0.0000000   0.0000000   0.0000000   0.0000000   0.0000000   2.0440000   2.0440000   2.0440000   2.0440000   0.0000000
 NMagM=    0.0000000   0.0000000   0.0000000   0.0000000   0.0000000   0.4037610   0.4037610   0.4037610   0.4037610   0.0000000

  Atom        31          32          33          34          35          36          37          38          39          40
 IAtWgt=          12          12          12          12          12          12          12          12          12          12
 AtmWgt=  12.0000000  12.0000000  12.0000000  12.0000000  12.0000000  12.0000000  12.0000000  12.0000000  12.0000000  12.0000000
 NucSpn=           0           0           0           0           0           0           0           0           0           0
 AtZEff=   0.0000000   0.0000000   0.0000000   0.0000000   0.0000000   0.0000000   0.0000000   0.0000000   0.0000000   0.0000000
 NQMom=    0.0000000   0.0000000   0.0000000   0.0000000   0.0000000   0.0000000   0.0000000   0.0000000   0.0000000   0.0000000
 NMagM=    0.0000000   0.0000000   0.0000000   0.0000000   0.0000000   0.0000000   0.0000000   0.0000000   0.0000000   0.0000000

  Atom        41          42          43          44          45          46          47          48          49          50
 IAtWgt=          12          12          12          12          12          12          12          12          12          12
 AtmWgt=  12.0000000  12.0000000  12.0000000  12.0000000  12.0000000  12.0000000  12.0000000  12.0000000  12.0000000  12.0000000
 NucSpn=           0           0           0           0           0           0           0           0           0           0
 AtZEff=   0.0000000   0.0000000   0.0000000   0.0000000   0.0000000   0.0000000   0.0000000   0.0000000   0.0000000   0.0000000
 NQMom=    0.0000000   0.0000000   0.0000000   0.0000000   0.0000000   0.0000000   0.0000000   0.0000000   0.0000000   0.0000000
 NMagM=    0.0000000   0.0000000   0.0000000   0.0000000   0.0000000   0.0000000   0.0000000   0.0000000   0.0000000   0.0000000

  Atom        51          52          53          54          55          56          57          58          59          60
 IAtWgt=          12          12          12          12          12          12          12          12          12          12
 AtmWgt=  12.0000000  12.0000000  12.0000000  12.0000000  12.0000000  12.0000000  12.0000000  12.0000000  12.0000000  12.0000000
 NucSpn=           0           0           0           0           0           0           0           0           0           0
 AtZEff=   0.0000000   0.0000000   0.0000000   0.0000000   0.0000000   0.0000000   0.0000000   0.0000000   0.0000000   0.0000000
 NQMom=    0.0000000   0.0000000   0.0000000   0.0000000   0.0000000   0.0000000   0.0000000   0.0000000   0.0000000   0.0000000
 NMagM=    0.0000000   0.0000000   0.0000000   0.0000000   0.0000000   0.0000000   0.0000000   0.0000000   0.0000000   0.0000000

  Atom        61          62          63          64          65          66          67          68          69          70
 IAtWgt=          12          12          12          12          12          12          12          12          12          12
 AtmWgt=  12.0000000  12.0000000  12.0000000  12.0000000  12.0000000  12.0000000  12.0000000  12.0000000  12.0000000  12.0000000
 NucSpn=           0           0           0           0           0           0           0           0           0           0
 AtZEff=   0.0000000   0.0000000   0.0000000   0.0000000   0.0000000   0.0000000   0.0000000   0.0000000   0.0000000   0.0000000
 NQMom=    0.0000000   0.0000000   0.0000000   0.0000000   0.0000000   0.0000000   0.0000000   0.0000000   0.0000000   0.0000000
 NMagM=    0.0000000   0.0000000   0.0000000   0.0000000   0.0000000   0.0000000   0.0000000   0.0000000   0.0000000   0.0000000

  Atom        71          72          73          74          75          76          77          78          79          80
 IAtWgt=          12          12          12          12          12          12          12           1           1           1
 AtmWgt=  12.0000000  12.0000000  12.0000000  12.0000000  12.0000000  12.0000000  12.0000000   1.0078250   1.0078250   1.0078250
 NucSpn=           0           0           0           0           0           0           0           1           1           1
 AtZEff=   0.0000000   0.0000000   0.0000000   0.0000000   0.0000000   0.0000000   0.0000000   0.0000000   0.0000000   0.0000000
 NQMom=    0.0000000   0.0000000   0.0000000   0.0000000   0.0000000   0.0000000   0.0000000   0.0000000   0.0000000   0.0000000
 NMagM=    0.0000000   0.0000000   0.0000000   0.0000000   0.0000000   0.0000000   0.0000000   2.7928460   2.7928460   2.7928460

  Atom        81          82          83          84          85          86          87          88          89          90
 IAtWgt=           1           1           1           1           1           1           1           1           1           1
 AtmWgt=   1.0078250   1.0078250   1.0078250   1.0078250   1.0078250   1.0078250   1.0078250   1.0078250   1.0078250   1.0078250
 NucSpn=           1           1           1           1           1           1           1           1           1           1
 AtZEff=   0.0000000   0.0000000   0.0000000   0.0000000   0.0000000   0.0000000   0.0000000   0.0000000   0.0000000   0.0000000
 NQMom=    0.0000000   0.0000000   0.0000000   0.0000000   0.0000000   0.0000000   0.0000000   0.0000000   0.0000000   0.0000000
 NMagM=    2.7928460   2.7928460   2.7928460   2.7928460   2.7928460   2.7928460   2.7928460   2.7928460   2.7928460   2.7928460

  Atom        91          92          93          94          95          96          97          98          99         100
 IAtWgt=           1           1           1          16           1           1          16           1           1           1
 AtmWgt=   1.0078250   1.0078250   1.0078250  15.9949146   1.0078250   1.0078250  15.9949146   1.0078250   1.0078250   1.0078250
 NucSpn=           1           1           1           0           1           1           0           1           1           1
 AtZEff=   0.0000000   0.0000000   0.0000000   0.0000000   0.0000000   0.0000000   0.0000000   0.0000000   0.0000000   0.0000000
 NQMom=    0.0000000   0.0000000   0.0000000   0.0000000   0.0000000   0.0000000   0.0000000   0.0000000   0.0000000   0.0000000
 NMagM=    2.7928460   2.7928460   2.7928460   0.0000000   2.7928460   2.7928460   0.0000000   2.7928460   2.7928460   2.7928460

  Atom       101         102         103         104         105         106         107         108         109         110
 IAtWgt=           1           1           1          16           1          16           1           1           1          16
 AtmWgt=   1.0078250   1.0078250   1.0078250  15.9949146   1.0078250  15.9949146   1.0078250   1.0078250   1.0078250  15.9949146
 NucSpn=           1           1           1           0           1           0           1           1           1           0
 AtZEff=   0.0000000   0.0000000   0.0000000   0.0000000   0.0000000   0.0000000   0.0000000   0.0000000   0.0000000   0.0000000
 NQMom=    0.0000000   0.0000000   0.0000000   0.0000000   0.0000000   0.0000000   0.0000000   0.0000000   0.0000000   0.0000000
 NMagM=    2.7928460   2.7928460   2.7928460   0.0000000   2.7928460   0.0000000   2.7928460   2.7928460   2.7928460   0.0000000

  Atom       111         112         113         114         115         116         117         118         119         120
 IAtWgt=           1           1           1           1          16           1          16           1           1           1
 AtmWgt=   1.0078250   1.0078250   1.0078250   1.0078250  15.9949146   1.0078250  15.9949146   1.0078250   1.0078250   1.0078250
 NucSpn=           1           1           1           1           0           1           0           1           1           1
 AtZEff=   0.0000000   0.0000000   0.0000000   0.0000000   0.0000000   0.0000000   0.0000000   0.0000000   0.0000000   0.0000000
 NQMom=    0.0000000   0.0000000   0.0000000   0.0000000   0.0000000   0.0000000   0.0000000   0.0000000   0.0000000   0.0000000
 NMagM=    2.7928460   2.7928460   2.7928460   2.7928460   0.0000000   2.7928460   0.0000000   2.7928460   2.7928460   2.7928460

  Atom       121         122         123         124         125         126         127         128         129         130
 IAtWgt=           1           1          16           1           1           1           1           1          12           1
 AtmWgt=   1.0078250   1.0078250  15.9949146   1.0078250   1.0078250   1.0078250   1.0078250   1.0078250  12.0000000   1.0078250
 NucSpn=           1           1           0           1           1           1           1           1           0           1
 AtZEff=   0.0000000   0.0000000   0.0000000   0.0000000   0.0000000   0.0000000   0.0000000   0.0000000   0.0000000   0.0000000
 NQMom=    0.0000000   0.0000000   0.0000000   0.0000000   0.0000000   0.0000000   0.0000000   0.0000000   0.0000000   0.0000000
 NMagM=    2.7928460   2.7928460   0.0000000   2.7928460   2.7928460   2.7928460   2.7928460   2.7928460   0.0000000   2.7928460

  Atom       131         132         133         134         135         136         137         138         139         140
 IAtWgt=           1           1           1          12           1           1           1          12          12           1
 AtmWgt=   1.0078250   1.0078250   1.0078250  12.0000000   1.0078250   1.0078250   1.0078250  12.0000000  12.0000000   1.0078250
 NucSpn=           1           1           1           0           1           1           1           0           0           1
 AtZEff=   0.0000000   0.0000000   0.0000000   0.0000000   0.0000000   0.0000000   0.0000000   0.0000000   0.0000000   0.0000000
 NQMom=    0.0000000   0.0000000   0.0000000   0.0000000   0.0000000   0.0000000   0.0000000   0.0000000   0.0000000   0.0000000
 NMagM=    2.7928460   2.7928460   2.7928460   0.0000000   2.7928460   2.7928460   2.7928460   0.0000000   0.0000000   2.7928460

  Atom       141         142         143         144         145         146         147         148         149         150
 IAtWgt=           1           1           1           1           1          12           1           1           1          12
 AtmWgt=   1.0078250   1.0078250   1.0078250   1.0078250   1.0078250  12.0000000   1.0078250   1.0078250   1.0078250  12.0000000
 NucSpn=           1           1           1           1           1           0           1           1           1           0
 AtZEff=   0.0000000   0.0000000   0.0000000   0.0000000   0.0000000   0.0000000   0.0000000   0.0000000   0.0000000   0.0000000
 NQMom=    0.0000000   0.0000000   0.0000000   0.0000000   0.0000000   0.0000000   0.0000000   0.0000000   0.0000000   0.0000000
 NMagM=    2.7928460   2.7928460   2.7928460   2.7928460   2.7928460   0.0000000   2.7928460   2.7928460   2.7928460   0.0000000

  Atom       151         152         153         154         155         156         157         158         159         160
 IAtWgt=           1           1           1          12          12           1           1           1           1           1
 AtmWgt=   1.0078250   1.0078250   1.0078250  12.0000000  12.0000000   1.0078250   1.0078250   1.0078250   1.0078250   1.0078250
 NucSpn=           1           1           1           0           0           1           1           1           1           1
 AtZEff=   0.0000000   0.0000000   0.0000000   0.0000000   0.0000000   0.0000000   0.0000000   0.0000000   0.0000000   0.0000000
 NQMom=    0.0000000   0.0000000   0.0000000   0.0000000   0.0000000   0.0000000   0.0000000   0.0000000   0.0000000   0.0000000
 NMagM=    2.7928460   2.7928460   2.7928460   0.0000000   0.0000000   2.7928460   2.7928460   2.7928460   2.7928460   2.7928460

  Atom       161
 IAtWgt=           1
 AtmWgt=   1.0078250
 NucSpn=           1
 AtZEff=   0.0000000
 NQMom=    0.0000000
 NMagM=    2.7928460
 Leave Link  101 at Tue Feb  3 19:47:52 2015, MaxMem= 2147483648 cpu:       4.0
 (Enter /opt/g09/l202.exe)
 Stoichiometry    C81H68N4O8
 Framework group  C1[X(C81H68N4O8)]
 Deg. of freedom   477
 Full point group                 C1      NOp   1
 Largest Abelian subgroup         C1      NOp   1
 Largest concise Abelian subgroup C1      NOp   1
                         Standard orientation:                         
 ---------------------------------------------------------------------
 Center     Atomic      Atomic             Coordinates (Angstroms)
 Number     Number       Type             X           Y           Z
 ---------------------------------------------------------------------
      1          6           0        0.175792   -0.131311    0.013942
      2          6           0       -0.399155   -1.189373   -0.939345
      3          6           0       -0.152575   -0.831818   -2.277952
      4          6           0        0.550474    0.453299   -2.301297
      5          6           0        0.737122    0.892035   -0.975397
      6          6           0       -0.875002    0.404639    0.990840
      7          6           0       -0.511251    0.108103    2.319409
      8          6           0        0.784866   -0.573948    2.311164
      9          6           0        1.226888   -0.692915    0.979959
     10          6           0       -2.065738    1.048314    0.694845
     11          6           0       -2.915660    1.439203    1.746450
     12          6           0       -2.542766    1.162234    3.075189
     13          6           0       -1.356627    0.490414    3.363957
     14          6           0        1.008630    1.246127   -3.356502
     15          6           0        1.636404    2.458827   -3.080995
     16          6           0        1.839592    2.887990   -1.755636
     17          6           0        1.385044    2.084144   -0.693332
     18          6           0       -1.119882   -2.326876   -0.611232
     19          6           0       -1.607727   -3.156802   -1.640349
     20          6           0       -1.309092   -2.829449   -2.980328
     21          6           0       -0.601932   -1.672411   -3.299808
     22          6           0        1.593040   -1.058114    3.342285
     23          6           0        2.827670   -1.625759    3.039386
     24          6           0        3.298891   -1.688548    1.711153
     25          6           0        2.469971   -1.222032    0.670768
     26          7           0       -4.144836    2.100248    1.473347
     27          7           0        2.500651    4.119807   -1.498637
     28          7           0       -2.380896   -4.301834   -1.333645
     29          7           0        4.595814   -2.195083    1.447928
     30          6           0        5.637537   -1.996591    2.405529
     31          6           0       -2.182598   -4.974696   -0.091177
     32          6           0        4.935919   -2.791661    0.201383
     33          6           0       -3.437693   -4.746147   -2.175633
     34          6           0       -4.214397    3.091270    0.457740
     35          6           0       -5.312866    1.737554    2.198551
     36          6           0        3.638825    4.486481   -2.270935
     37          6           0        2.065927    4.962159   -0.441437
     38          6           0        3.777528    5.803528   -2.746710
     39          6           0        4.894065    6.144962   -3.499424
     40          6           0        5.881002    5.204530   -3.813338
     41          6           0        5.734616    3.893991   -3.344325
     42          6           0        4.623692    3.541091   -2.567504
     43          6           0       -5.322281    3.150200   -0.392883
     44          6           0       -5.406129    4.133821   -1.385696
     45          6           0       -4.369294    5.057970   -1.555248
     46          6           0       -3.258512    4.979990   -0.708744
     47          6           0       -3.170289    4.021763    0.294059
     48          6           0       -6.185591    2.724531    2.664802
     49          6           0       -7.344237    2.374233    3.368523
     50          6           0       -7.630168    1.030002    3.634780
     51          6           0       -6.742674    0.051914    3.174092
     52          6           0       -5.599872    0.383984    2.456864
     53          6           0        3.000753    5.624819    0.359674
     54          6           0        2.580462    6.474390    1.390408
     55          6           0        1.217085    6.653264    1.648607
     56          6           0        0.290762    5.973454    0.850504
     57          6           0        0.691899    5.143266   -0.188979
     58          6           0       -0.986822   -5.644473    0.171486
     59          6           0       -0.775115   -6.303404    1.383742
     60          6           0       -1.784522   -6.305161    2.343205
     61          6           0       -2.991895   -5.643100    2.104354
     62          6           0       -3.195836   -4.964277    0.897865
     63          6           0       -4.261938   -3.816913   -2.835578
     64          6           0       -5.299718   -4.264628   -3.654087
     65          6           0       -5.542871   -5.638853   -3.806090
     66          6           0       -4.734071   -6.546543   -3.134183
     67          6           0       -3.677962   -6.116561   -2.326922
     68          6           0        4.057868   -3.702058   -0.415462
     69          6           0        4.406919   -4.285122   -1.636916
     70          6           0        5.640780   -3.993763   -2.237408
     71          6           0        6.504170   -3.102447   -1.612982
     72          6           0        6.161332   -2.489251   -0.406927
     73          6           0        5.875395   -0.734089    2.958403
     74          6           0        6.902661   -0.577501    3.892322
     75          6           0        7.703498   -1.650401    4.266223
     76          6           0        7.470090   -2.914168    3.702585
     77          6           0        6.433475   -3.091235    2.782922
     78          1           0        2.812475   -1.259209   -0.357661
     79          1           0       -1.332420   -2.566010    0.425461
     80          1           0       -1.655019   -3.483734   -3.773262
     81          1           0       -0.403356   -1.437711   -4.342704
     82          1           0        0.867916    0.936389   -4.388969
     83          1           0        1.981165    3.086395   -3.896254
     84          1           0        1.270213   -1.000671    4.378860
     85          1           0        3.452607   -2.006734    3.839525
     86          1           0       -1.092135    0.286441    4.398500
     87          1           0       -3.196153    1.478264    3.881952
     88          1           0        1.544649    2.401276    0.332219
     89          1           0       -2.348825    1.249678   -0.333434
     90          1           0        5.887000   -4.465680   -3.182822
     91          1           0       -6.358440   -5.959856   -4.445685
     92          1           0        6.735534    5.498007   -4.411288
     93          1           0       -4.412392    5.823408   -2.320773
     94          8           0        6.627095    2.884698   -3.573773
     95          1           0        4.544352    2.522135   -2.205499
     96          1           0       -6.135925    2.440327   -0.297587
     97          8           0       -6.539517    4.091826   -2.149577
     98          1           0        4.998233    7.162392   -3.867408
     99          1           0        3.012718    6.539244   -2.523329
    100          1           0       -2.452050    5.698291   -0.832015
    101          1           0       -2.306057    3.984134    0.948015
    102          1           0        6.833484   -1.778296    0.060012
    103          1           0        7.455678   -2.862531   -2.080161
    104          8           0        3.620076   -5.170547   -2.317117
    105          1           0        3.117296   -3.935077    0.067414
    106          8           0       -6.147892   -3.436835   -4.335565
    107          1           0       -4.084823   -2.760341   -2.684239
    108          1           0       -4.915529   -7.611974   -3.250261
    109          1           0       -3.042670   -6.835308   -1.820738
    110          8           0       -4.320324   -4.263800    0.589950
    111          1           0        0.163032   -6.818441    1.568104
    112          1           0       -0.223196   -5.641875   -0.599912
    113          1           0        5.263844    0.109919    2.658311
    114          1           0        7.089284    0.403456    4.321117
    115          8           0        8.299329   -3.913265    4.126925
    116          1           0        6.226817   -4.059270    2.343937
    117          8           0        3.587759    7.069935    2.097652
    118          1           0        4.064598    5.494416    0.197678
    119          1           0       -0.770127    6.112473    1.042797
    120          1           0       -0.042411    4.634380   -0.803554
    121          1           0       -4.930316   -0.386580    2.090626
    122          1           0       -6.963777   -0.994294    3.370323
    123          8           0       -8.121547    3.425397    3.767335
    124          1           0       -5.983317    3.774500    2.485830
    125          1           0       -1.640463   -6.819785    3.289272
    126          1           0       -8.518593    0.739174    4.182429
    127          1           0        0.871636    7.300343    2.445827
    128          1           0        8.511200   -1.538837    4.982228
    129          6           0       -5.950807   -2.036052   -4.228729
    130          1           0       -4.955615   -1.738758   -4.584870
    131          1           0       -6.079938   -1.685857   -3.196062
    132          1           0       -6.713015   -1.577555   -4.861782
    133          1           0       -3.761469   -5.644795    2.867839
    134          6           0       -5.388865   -4.252389    1.522533
    135          1           0       -5.766792   -5.264957    1.714899
    136          1           0       -6.176938   -3.654131    1.062214
    137          1           0       -5.089440   -3.791458    2.473420
    138          6           0        2.316899   -5.431269   -1.823144
    139          6           0        8.126374   -5.209864    3.577786
    140          1           0        8.895107   -5.833982    4.037436
    141          1           0        8.262209   -5.209248    2.488292
    142          1           0        7.136404   -5.621499    3.815744
    143          1           0        1.856548   -6.113848   -2.540355
    144          1           0        1.718791   -4.513122   -1.758885
    145          1           0        2.347508   -5.913009   -0.835949
    146          6           0        7.796179    3.180869   -4.318591
    147          1           0        8.363127    2.249275   -4.368633
    148          1           0        8.405972    3.950259   -3.826203
    149          1           0        7.555039    3.512191   -5.337627
    150          6           0        3.236137    7.914798    3.180097
    151          1           0        4.178749    8.267097    3.603584
    152          1           0        2.672869    7.372367    3.951249
    153          1           0        2.645357    8.778057    2.845251
    154          6           0       -6.678627    5.042720   -3.191677
    155          6           0       -9.298418    3.146212    4.506628
    156          1           0       -9.753607    4.114891    4.721771
    157          1           0       -9.071908    2.634833    5.451908
    158          1           0      -10.004741    2.535403    3.928485
    159          1           0       -7.636076    4.825801   -3.669407
    160          1           0       -5.874330    4.951231   -3.933927
    161          1           0       -6.693064    6.069984   -2.803535
 ---------------------------------------------------------------------
 Rotational constants (GHZ):      0.0190093      0.0149571      0.0113223
 Leave Link  202 at Tue Feb  3 19:47:53 2015, MaxMem= 2147483648 cpu:       1.1
 (Enter /opt/g09/l301.exe)
 Standard basis: CC-pVDZ (5D, 7F)
 Ernie: Thresh=  0.10000D-02 Tol=  0.10000D-05 Strict=F.
 Ernie:  186 primitive shells out of 2386 were deleted.
 There are  1642 symmetry adapted basis functions of A   symmetry.
 Integral buffers will be    131072 words long.
 Raffenetti 2 integral format.
 Two-electron integral symmetry is turned on.
  1642 basis functions,  3545 primitive gaussians,  1735 cartesian basis functions
   323 alpha electrons      323 beta electrons
       nuclear repulsion energy     16639.1622688175 Hartrees.
 IExCor=  402 DFT=T Ex+Corr=B3LYP ExCW=0 ScaHFX=  0.200000
 ScaDFX=  0.800000  0.720000  1.000000  0.810000 ScalE2=  1.000000  1.000000
 IRadAn=      0 IRanWt=     -1 IRanGd=            0 ICorTp=0
 NAtoms=  161 NActive=  161 NUniq=  161 SFac= 7.50D-01 NAtFMM=   80 NAOKFM=T Big=T
 Leave Link  301 at Tue Feb  3 19:47:53 2015, MaxMem= 2147483648 cpu:       1.4
 (Enter /opt/g09/l302.exe)
 NPDir=0 NMtPBC=     1 NCelOv=     1 NCel=       1 NClECP=     1 NCelD=      1
         NCelK=      1 NCelE2=     1 NClLst=     1 CellRange=     0.0.
 One-electron integrals computed using PRISM.
 NBasis=  1642 RedAO= T  NBF=  1642
 NBsUse=  1642 1.00D-06 NBFU=  1642
 Precomputing XC quadrature grid using
 IXCGrd= 2 IRadAn=           0 IRanWt=          -1 IRanGd=           0 AccXCQ= 1.00D-10.
 NRdTot=   10526 NPtTot=     1348816 NUsed=     1424604 NTot=     1424636
 NSgBfM=  1201  1217  1237  1249  1254 NAtAll=   161   160.
 Leave Link  302 at Tue Feb  3 19:48:13 2015, MaxMem= 2147483648 cpu:     496.5
 (Enter /opt/g09/l303.exe)
 DipDrv:  MaxL=1.
 Leave Link  303 at Tue Feb  3 19:48:15 2015, MaxMem= 2147483648 cpu:      40.5
 (Enter /opt/g09/l401.exe)
 Harris functional with IExCor=  402 diagonalized for initial guess.
 ExpMin= 1.22D-01 ExpMax= 1.17D+04 ExpMxC= 4.01D+02 IAcc=1 IRadAn=         1 AccDes= 0.00D+00
 HarFok:  IExCor=  402 AccDes= 0.00D+00 IRadAn=         1 IDoV= 1
 ScaDFX=  1.000000  1.000000  1.000000  1.000000
 FoFCou: FMM=F IPFlag=           0 FMFlag=      100000 FMFlg1=        2001
         NFxFlg=           0 DoJE=T BraDBF=F KetDBF=T FulRan=T
         Omega=  0.000000  0.000000  1.000000  0.000000  0.000000 ICntrl=     500 IOpCl=  0
         NMat0=    1 NMatS0=    1 NMatT0=    0 NMatD0=    1 NMtDS0=    0 NMtDT0=    0
         I1Cent=           4 NGrid=           0.
 Petite list used in FoFCou.
 Harris En= -3948.67916482230    
 Initial guess orbital symmetries:
       Occupied  (A) (A) (A) (A) (A) (A) (A) (A) (A) (A) (A) (A)
                 (A) (A) (A) (A) (A) (A) (A) (A) (A) (A) (A) (A)
                 (A) (A) (A) (A) (A) (A) (A) (A) (A) (A) (A) (A)
                 (A) (A) (A) (A) (A) (A) (A) (A) (A) (A) (A) (A)
                 (A) (A) (A) (A) (A) (A) (A) (A) (A) (A) (A) (A)
                 (A) (A) (A) (A) (A) (A) (A) (A) (A) (A) (A) (A)
                 (A) (A) (A) (A) (A) (A) (A) (A) (A) (A) (A) (A)
                 (A) (A) (A) (A) (A) (A) (A) (A) (A) (A) (A) (A)
                 (A) (A) (A) (A) (A) (A) (A) (A) (A) (A) (A) (A)
                 (A) (A) (A) (A) (A) (A) (A) (A) (A) (A) (A) (A)
                 (A) (A) (A) (A) (A) (A) (A) (A) (A) (A) (A) (A)
                 (A) (A) (A) (A) (A) (A) (A) (A) (A) (A) (A) (A)
                 (A) (A) (A) (A) (A) (A) (A) (A) (A) (A) (A) (A)
                 (A) (A) (A) (A) (A) (A) (A) (A) (A) (A) (A) (A)
                 (A) (A) (A) (A) (A) (A) (A) (A) (A) (A) (A) (A)
                 (A) (A) (A) (A) (A) (A) (A) (A) (A) (A) (A) (A)
                 (A) (A) (A) (A) (A) (A) (A) (A) (A) (A) (A) (A)
                 (A) (A) (A) (A) (A) (A) (A) (A) (A) (A) (A) (A)
                 (A) (A) (A) (A) (A) (A) (A) (A) (A) (A) (A) (A)
                 (A) (A) (A) (A) (A) (A) (A) (A) (A) (A) (A) (A)
                 (A) (A) (A) (A) (A) (A) (A) (A) (A) (A) (A) (A)
                 (A) (A) (A) (A) (A) (A) (A) (A) (A) (A) (A) (A)
                 (A) (A) (A) (A) (A) (A) (A) (A) (A) (A) (A) (A)
                 (A) (A) (A) (A) (A) (A) (A) (A) (A) (A) (A) (A)
                 (A) (A) (A) (A) (A) (A) (A) (A) (A) (A) (A) (A)
                 (A) (A) (A) (A) (A) (A) (A) (A) (A) (A) (A) (A)
                 (A) (A) (A) (A) (A) (A) (A) (A) (A) (A) (A)
       Virtual   (A) (A) (A) (A) (A) (A) (A) (A) (A) (A) (A) (A)
                 (A) (A) (A) (A) (A) (A) (A) (A) (A) (A) (A) (A)
                 (A) (A) (A) (A) (A) (A) (A) (A) (A) (A) (A) (A)
                 (A) (A) (A) (A) (A) (A) (A) (A) (A) (A) (A) (A)
                 (A) (A) (A) (A) (A) (A) (A) (A) (A) (A) (A) (A)
                 (A) (A) (A) (A) (A) (A) (A) (A) (A) (A) (A) (A)
                 (A) (A) (A) (A) (A) (A) (A) (A) (A) (A) (A) (A)
                 (A) (A) (A) (A) (A) (A) (A) (A) (A) (A) (A) (A)
                 (A) (A) (A) (A) (A) (A) (A) (A) (A) (A) (A) (A)
                 (A) (A) (A) (A) (A) (A) (A) (A) (A) (A) (A) (A)
                 (A) (A) (A) (A) (A) (A) (A) (A) (A) (A) (A) (A)
                 (A) (A) (A) (A) (A) (A) (A) (A) (A) (A) (A) (A)
                 (A) (A) (A) (A) (A) (A) (A) (A) (A) (A) (A) (A)
                 (A) (A) (A) (A) (A) (A) (A) (A) (A) (A) (A) (A)
                 (A) (A) (A) (A) (A) (A) (A) (A) (A) (A) (A) (A)
                 (A) (A) (A) (A) (A) (A) (A) (A) (A) (A) (A) (A)
                 (A) (A) (A) (A) (A) (A) (A) (A) (A) (A) (A) (A)
                 (A) (A) (A) (A) (A) (A) (A) (A) (A) (A) (A) (A)
                 (A) (A) (A) (A) (A) (A) (A) (A) (A) (A) (A) (A)
                 (A) (A) (A) (A) (A) (A) (A) (A) (A) (A) (A) (A)
                 (A) (A) (A) (A) (A) (A) (A) (A) (A) (A) (A) (A)
                 (A) (A) (A) (A) (A) (A) (A) (A) (A) (A) (A) (A)
                 (A) (A) (A) (A) (A) (A) (A) (A) (A) (A) (A) (A)
                 (A) (A) (A) (A) (A) (A) (A) (A) (A) (A) (A) (A)
                 (A) (A) (A) (A) (A) (A) (A) (A) (A) (A) (A) (A)
                 (A) (A) (A) (A) (A) (A) (A) (A) (A) (A) (A) (A)
                 (A) (A) (A) (A) (A) (A) (A) (A) (A) (A) (A) (A)
                 (A) (A) (A) (A) (A) (A) (A) (A) (A) (A) (A) (A)
                 (A) (A) (A) (A) (A) (A) (A) (A) (A) (A) (A) (A)
                 (A) (A) (A) (A) (A) (A) (A) (A) (A) (A) (A) (A)
                 (A) (A) (A) (A) (A) (A) (A) (A) (A) (A) (A) (A)
                 (A) (A) (A) (A) (A) (A) (A) (A) (A) (A) (A) (A)
                 (A) (A) (A) (A) (A) (A) (A) (A) (A) (A) (A) (A)
                 (A) (A) (A) (A) (A) (A) (A) (A) (A) (A) (A) (A)
                 (A) (A) (A) (A) (A) (A) (A) (A) (A) (A) (A) (A)
                 (A) (A) (A) (A) (A) (A) (A) (A) (A) (A) (A) (A)
                 (A) (A) (A) (A) (A) (A) (A) (A) (A) (A) (A) (A)
                 (A) (A) (A) (A) (A) (A) (A) (A) (A) (A) (A) (A)
                 (A) (A) (A) (A) (A) (A) (A) (A) (A) (A) (A) (A)
                 (A) (A) (A) (A) (A) (A) (A) (A) (A) (A) (A) (A)
                 (A) (A) (A) (A) (A) (A) (A) (A) (A) (A) (A) (A)
                 (A) (A) (A) (A) (A) (A) (A) (A) (A) (A) (A) (A)
                 (A) (A) (A) (A) (A) (A) (A) (A) (A) (A) (A) (A)
                 (A) (A) (A) (A) (A) (A) (A) (A) (A) (A) (A) (A)
                 (A) (A) (A) (A) (A) (A) (A) (A) (A) (A) (A) (A)
                 (A) (A) (A) (A) (A) (A) (A) (A) (A) (A) (A) (A)
                 (A) (A) (A) (A) (A) (A) (A) (A) (A) (A) (A) (A)
                 (A) (A) (A) (A) (A) (A) (A) (A) (A) (A) (A) (A)
                 (A) (A) (A) (A) (A) (A) (A) (A) (A) (A) (A) (A)
                 (A) (A) (A) (A) (A) (A) (A) (A) (A) (A) (A) (A)
                 (A) (A) (A) (A) (A) (A) (A) (A) (A) (A) (A) (A)
                 (A) (A) (A) (A) (A) (A) (A) (A) (A) (A) (A) (A)
                 (A) (A) (A) (A) (A) (A) (A) (A) (A) (A) (A) (A)
                 (A) (A) (A) (A) (A) (A) (A) (A) (A) (A) (A) (A)
                 (A) (A) (A) (A) (A) (A) (A) (A) (A) (A) (A) (A)
                 (A) (A) (A) (A) (A) (A) (A) (A) (A) (A) (A) (A)
                 (A) (A) (A) (A) (A) (A) (A) (A) (A) (A) (A) (A)
                 (A) (A) (A) (A) (A) (A) (A) (A) (A) (A) (A) (A)
                 (A) (A) (A) (A) (A) (A) (A) (A) (A) (A) (A) (A)
                 (A) (A) (A) (A) (A) (A) (A) (A) (A) (A) (A) (A)
                 (A) (A) (A) (A) (A) (A) (A) (A) (A) (A) (A) (A)
                 (A) (A) (A) (A) (A) (A) (A) (A) (A) (A) (A) (A)
                 (A) (A) (A) (A) (A) (A) (A) (A) (A) (A) (A) (A)
                 (A) (A) (A) (A) (A) (A) (A) (A) (A) (A) (A) (A)
                 (A) (A) (A) (A) (A) (A) (A) (A) (A) (A) (A) (A)
                 (A) (A) (A) (A) (A) (A) (A) (A) (A) (A) (A) (A)
                 (A) (A) (A) (A) (A) (A) (A) (A) (A) (A) (A) (A)
                 (A) (A) (A) (A) (A) (A) (A) (A) (A) (A) (A) (A)
                 (A) (A) (A) (A) (A) (A) (A) (A) (A) (A) (A) (A)
                 (A) (A) (A) (A) (A) (A) (A) (A) (A) (A) (A) (A)
                 (A) (A) (A) (A) (A) (A) (A) (A) (A) (A) (A) (A)
                 (A) (A) (A) (A) (A) (A) (A) (A) (A) (A) (A) (A)
                 (A) (A) (A) (A) (A) (A) (A) (A) (A) (A) (A) (A)
                 (A) (A) (A) (A) (A) (A) (A) (A) (A) (A) (A) (A)
                 (A) (A) (A) (A) (A) (A) (A) (A) (A) (A) (A) (A)
                 (A) (A) (A) (A) (A) (A) (A) (A) (A) (A) (A) (A)
                 (A) (A) (A) (A) (A) (A) (A) (A) (A) (A) (A) (A)
                 (A) (A) (A) (A) (A) (A) (A) (A) (A) (A) (A) (A)
                 (A) (A) (A) (A) (A) (A) (A) (A) (A) (A) (A) (A)
                 (A) (A) (A) (A) (A) (A) (A) (A) (A) (A) (A) (A)
                 (A) (A) (A) (A) (A) (A) (A) (A) (A) (A) (A) (A)
                 (A) (A) (A) (A) (A) (A) (A) (A) (A) (A) (A) (A)
                 (A) (A) (A) (A) (A) (A) (A) (A) (A) (A) (A) (A)
                 (A) (A) (A) (A) (A) (A) (A) (A) (A) (A) (A) (A)
                 (A) (A) (A) (A) (A) (A) (A) (A) (A) (A) (A) (A)
                 (A) (A) (A) (A) (A) (A) (A) (A) (A) (A) (A) (A)
                 (A) (A) (A) (A) (A) (A) (A) (A) (A) (A) (A) (A)
                 (A) (A) (A) (A) (A) (A) (A) (A) (A) (A) (A) (A)
                 (A) (A) (A) (A) (A) (A) (A) (A) (A) (A) (A) (A)
                 (A) (A) (A) (A) (A) (A) (A) (A) (A) (A) (A) (A)
                 (A) (A) (A) (A) (A) (A) (A) (A) (A) (A) (A) (A)
                 (A) (A) (A) (A) (A) (A) (A) (A) (A) (A) (A) (A)
                 (A) (A) (A) (A) (A) (A) (A) (A) (A) (A) (A) (A)
                 (A) (A) (A) (A) (A) (A) (A) (A) (A) (A) (A) (A)
                 (A) (A) (A) (A) (A) (A) (A) (A) (A) (A) (A) (A)
                 (A) (A) (A) (A) (A) (A) (A) (A) (A) (A) (A) (A)
                 (A) (A) (A) (A) (A) (A) (A) (A) (A) (A) (A) (A)
                 (A) (A) (A) (A) (A) (A) (A) (A) (A) (A) (A) (A)
                 (A) (A) (A) (A) (A) (A) (A) (A) (A) (A) (A) (A)
                 (A) (A) (A) (A) (A) (A) (A) (A) (A) (A) (A) (A)
                 (A) (A) (A) (A) (A) (A) (A) (A) (A) (A) (A) (A)
                 (A) (A) (A) (A) (A) (A) (A) (A) (A) (A) (A) (A)
                 (A) (A) (A) (A) (A) (A) (A) (A) (A) (A) (A) (A)
                 (A) (A) (A) (A) (A) (A) (A) (A) (A) (A) (A) (A)
                 (A) (A) (A) (A) (A) (A) (A) (A) (A) (A) (A) (A)
                 (A) (A) (A) (A) (A) (A) (A) (A) (A) (A) (A) (A)
                 (A) (A) (A) (A) (A) (A) (A) (A) (A) (A) (A) (A)
                 (A) (A) (A) (A) (A) (A) (A) (A) (A) (A) (A) (A)
                 (A) (A) (A) (A) (A) (A) (A) (A) (A) (A) (A) (A)
                 (A) (A) (A) (A) (A) (A) (A) (A) (A) (A) (A)
 The electronic state of the initial guess is 1-A.
 Leave Link  401 at Tue Feb  3 19:48:37 2015, MaxMem= 2147483648 cpu:     518.5
 (Enter /opt/g09/l502.exe)
 Closed shell SCF:
 Requested convergence on RMS density matrix=1.00D-08 within 128 cycles.
 Requested convergence on MAX density matrix=1.00D-06.
 Requested convergence on             energy=1.00D-06.
 No special actions if energy rises.
 Using DIIS extrapolation, IDIIS=  1040.
 Integral symmetry usage will be decided dynamically.
      1423142 words used for storage of precomputed grid.
 IEnd=    10526739 IEndB=    10526739 NGot=  2147483648 MDV=  2139985510
 LenX=  2139985510 LenY=  2136973550
 Fock matrices will be formed incrementally for  20 cycles.
 Integral accuracy reduced to 1.0D-05 until final iterations.

 Cycle   1  Pass 0  IDiag  1:
 FoFCou: FMM=T IPFlag=           0 FMFlag=      100000 FMFlg1=        2001
         NFxFlg=           0 DoJE=F BraDBF=F KetDBF=F FulRan=T
         Omega=  0.000000  0.000000  1.000000  0.000000  0.000000 ICntrl=       0 IOpCl=  0
         NMat0=    1 NMatS0=    1 NMatT0=    0 NMatD0=    1 NMtDS0=    0 NMtDT0=    0
         I1Cent=           0 NGrid=           0.
 Symmetry not used in FoFCou.
 FMM levels:  10  Number of levels for PrismC:   9
 E= -3946.66549832524    
 DIIS: error= 1.56D-02 at cycle   1 NSaved=   1.
 NSaved= 1 IEnMin= 1 EnMin= -3946.66549832524     IErMin= 1 ErrMin= 1.56D-02
 ErrMax= 1.56D-02 EMaxC= 1.00D-01 BMatC= 1.62D+00 BMatP= 1.62D+00
 IDIUse=3 WtCom= 8.44D-01 WtEn= 1.56D-01
 Coeff-Com:  0.100D+01
 Coeff-En:   0.100D+01
 Coeff:      0.100D+01
 Gap=     0.148 Goal=   None    Shift=    0.000
 GapD=    0.148 DampG=1.000 DampE=0.500 DampFc=0.5000 IDamp=-1.
 Damping current iteration by 5.00D-01
 RMSDP=2.23D-03 MaxDP=1.88D-01              OVMax= 2.09D-01

 Cycle   2  Pass 0  IDiag  1:
 RMSU=  7.46D-04    CP:  9.58D-01
 E= -3947.51258214453     Delta-E=       -0.847083819295 Rises=F Damp=T
 DIIS: error= 3.16D-03 at cycle   2 NSaved=   2.
 NSaved= 2 IEnMin= 2 EnMin= -3947.51258214453     IErMin= 2 ErrMin= 3.16D-03
 ErrMax= 3.16D-03 EMaxC= 1.00D-01 BMatC= 1.04D-01 BMatP= 1.62D+00
 IDIUse=3 WtCom= 9.68D-01 WtEn= 3.16D-02
 Coeff-Com:  0.449D-01 0.955D+00
 Coeff-En:   0.507D-01 0.949D+00
 Coeff:      0.451D-01 0.955D+00
 Gap=     0.134 Goal=   None    Shift=    0.000
 RMSDP=7.61D-04 MaxDP=9.74D-02 DE=-8.47D-01 OVMax= 1.86D-01

 Cycle   3  Pass 0  IDiag  1:
 RMSU=  4.88D-04    CP:  9.32D-01  1.22D+00
 E= -3948.34141934553     Delta-E=       -0.828837200999 Rises=F Damp=F
 DIIS: error= 4.58D-03 at cycle   3 NSaved=   3.
 NSaved= 3 IEnMin= 3 EnMin= -3948.34141934553     IErMin= 2 ErrMin= 3.16D-03
 ErrMax= 4.58D-03 EMaxC= 1.00D-01 BMatC= 1.66D-01 BMatP= 1.04D-01
 IDIUse=3 WtCom= 1.29D-01 WtEn= 8.71D-01
 Coeff-Com: -0.212D-01 0.577D+00 0.444D+00
 Coeff-En:   0.000D+00 0.000D+00 0.100D+01
 Coeff:     -0.273D-02 0.743D-01 0.928D+00
 Gap=     0.180 Goal=   None    Shift=    0.000
 RMSDP=8.66D-04 MaxDP=9.23D-02 DE=-8.29D-01 OVMax= 1.94D-01

 Cycle   4  Pass 0  IDiag  1:
 RMSU=  4.03D-04    CP:  9.35D-01  1.30D+00  6.44D-02
 E= -3947.76233418943     Delta-E=        0.579085156100 Rises=F Damp=F
 DIIS: error= 1.08D-02 at cycle   4 NSaved=   4.
 NSaved= 4 IEnMin= 3 EnMin= -3948.34141934553     IErMin= 2 ErrMin= 3.16D-03
 ErrMax= 1.08D-02 EMaxC= 1.00D-01 BMatC= 7.00D-01 BMatP= 1.04D-01
 IDIUse=2 WtCom= 0.00D+00 WtEn= 1.00D+00
 Coeff-En:   0.000D+00 0.000D+00 0.751D+00 0.249D+00
 Coeff:      0.000D+00 0.000D+00 0.751D+00 0.249D+00
 Gap=     0.145 Goal=   None    Shift=    0.000
 RMSDP=4.50D-04 MaxDP=4.31D-02 DE= 5.79D-01 OVMax= 1.11D-01

 Cycle   5  Pass 0  IDiag  1:
 RMSU=  6.56D-05    CP:  9.35D-01  1.24D+00  5.13D-01  4.65D-01
 E= -3948.47202269904     Delta-E=       -0.709688509603 Rises=F Damp=F
 DIIS: error= 2.35D-03 at cycle   5 NSaved=   5.
 NSaved= 5 IEnMin= 5 EnMin= -3948.47202269904     IErMin= 5 ErrMin= 2.35D-03
 ErrMax= 2.35D-03 EMaxC= 1.00D-01 BMatC= 4.54D-02 BMatP= 1.04D-01
 IDIUse=3 WtCom= 9.76D-01 WtEn= 2.35D-02
 Coeff-Com:  0.679D-02 0.153D-01 0.382D+00 0.466D-01 0.549D+00
 Coeff-En:   0.000D+00 0.000D+00 0.263D+00 0.000D+00 0.737D+00
 Coeff:      0.663D-02 0.149D-01 0.380D+00 0.455D-01 0.553D+00
 Gap=     0.136 Goal=   None    Shift=    0.000
 RMSDP=1.50D-04 MaxDP=1.82D-02 DE=-7.10D-01 OVMax= 3.51D-02

 Cycle   6  Pass 0  IDiag  1:
 RMSU=  2.85D-05    CP:  9.34D-01  1.23D+00  6.70D-01  3.16D-01  5.66D-01
 E= -3948.51806294507     Delta-E=       -0.046040246030 Rises=F Damp=F
 DIIS: error= 5.09D-04 at cycle   6 NSaved=   6.
 NSaved= 6 IEnMin= 6 EnMin= -3948.51806294507     IErMin= 6 ErrMin= 5.09D-04
 ErrMax= 5.09D-04 EMaxC= 1.00D-01 BMatC= 8.98D-04 BMatP= 4.54D-02
 IDIUse=3 WtCom= 9.95D-01 WtEn= 5.09D-03
 Coeff-Com:  0.230D-02-0.768D-02 0.120D+00-0.313D-01 0.358D+00 0.559D+00
 Coeff-En:   0.000D+00 0.000D+00 0.000D+00 0.000D+00 0.000D+00 0.100D+01
 Coeff:      0.229D-02-0.764D-02 0.119D+00-0.311D-01 0.356D+00 0.561D+00
 Gap=     0.135 Goal=   None    Shift=    0.000
 RMSDP=2.64D-05 MaxDP=2.29D-03 DE=-4.60D-02 OVMax= 6.69D-03

 Cycle   7  Pass 0  IDiag  1:
 RMSU=  9.54D-06    CP:  9.34D-01  1.23D+00  6.76D-01  3.13D-01  7.02D-01
                    CP:  5.49D-01
 E= -3948.51894232519     Delta-E=       -0.000879380121 Rises=F Damp=F
 DIIS: error= 2.07D-04 at cycle   7 NSaved=   7.
 NSaved= 7 IEnMin= 7 EnMin= -3948.51894232519     IErMin= 7 ErrMin= 2.07D-04
 ErrMax= 2.07D-04 EMaxC= 1.00D-01 BMatC= 1.27D-04 BMatP= 8.98D-04
 IDIUse=3 WtCom= 9.98D-01 WtEn= 2.07D-03
 Coeff-Com:  0.113D-02-0.537D-02 0.589D-01-0.247D-01 0.210D+00 0.381D+00
 Coeff-Com:  0.379D+00
 Coeff-En:   0.000D+00 0.000D+00 0.000D+00 0.000D+00 0.000D+00 0.583D-01
 Coeff-En:   0.942D+00
 Coeff:      0.112D-02-0.536D-02 0.587D-01-0.246D-01 0.210D+00 0.381D+00
 Coeff:      0.380D+00
 Gap=     0.135 Goal=   None    Shift=    0.000
 RMSDP=9.25D-06 MaxDP=9.39D-04 DE=-8.79D-04 OVMax= 2.67D-03

 Initial convergence to 1.0D-05 achieved.  Increase integral accuracy.
 Cycle   8  Pass 1  IDiag  1:
 E= -3948.51919983106     Delta-E=       -0.000257505868 Rises=F Damp=F
 DIIS: error= 2.91D-04 at cycle   1 NSaved=   1.
 NSaved= 1 IEnMin= 1 EnMin= -3948.51919983106     IErMin= 1 ErrMin= 2.91D-04
 ErrMax= 2.91D-04 EMaxC= 1.00D-01 BMatC= 1.14D-04 BMatP= 1.14D-04
 IDIUse=3 WtCom= 9.97D-01 WtEn= 2.91D-03
 Coeff-Com:  0.100D+01
 Coeff-En:   0.100D+01
 Coeff:      0.100D+01
 Gap=     0.135 Goal=   None    Shift=    0.000
 RMSDP=9.25D-06 MaxDP=9.39D-04 DE=-2.58D-04 OVMax= 1.86D-03

 Cycle   9  Pass 1  IDiag  1:
 RMSU=  1.12D-04    CP:  9.99D-01
 E= -3948.51926225025     Delta-E=       -0.000062419196 Rises=F Damp=F
 DIIS: error= 1.42D-04 at cycle   2 NSaved=   2.
 NSaved= 2 IEnMin= 2 EnMin= -3948.51926225025     IErMin= 2 ErrMin= 1.42D-04
 ErrMax= 1.42D-04 EMaxC= 1.00D-01 BMatC= 3.77D-05 BMatP= 1.14D-04
 IDIUse=3 WtCom= 9.99D-01 WtEn= 1.42D-03
 Coeff-Com:  0.288D+00 0.712D+00
 Coeff-En:   0.000D+00 0.100D+01
 Coeff:      0.288D+00 0.712D+00
 Gap=     0.135 Goal=   None    Shift=    0.000
 RMSDP=1.18D-05 MaxDP=1.72D-03 DE=-6.24D-05 OVMax= 3.29D-03

 Cycle  10  Pass 1  IDiag  1:
 RMSU=  8.29D-06    CP:  9.99D-01  1.00D+00
 E= -3948.51920400033     Delta-E=        0.000058249920 Rises=F Damp=F
 DIIS: error= 2.30D-04 at cycle   3 NSaved=   3.
 NSaved= 3 IEnMin= 2 EnMin= -3948.51926225025     IErMin= 2 ErrMin= 1.42D-04
 ErrMax= 2.30D-04 EMaxC= 1.00D-01 BMatC= 8.91D-05 BMatP= 3.77D-05
 IDIUse=3 WtCom= 3.98D-01 WtEn= 6.02D-01
 Coeff-Com:  0.203D-02 0.606D+00 0.392D+00
 Coeff-En:   0.000D+00 0.649D+00 0.351D+00
 Coeff:      0.806D-03 0.632D+00 0.367D+00
 Gap=     0.135 Goal=   None    Shift=    0.000
 RMSDP=6.52D-06 MaxDP=8.23D-04 DE= 5.82D-05 OVMax= 1.94D-03

 Cycle  11  Pass 1  IDiag  1:
 RMSU=  7.79D-07    CP:  9.99D-01  1.01D+00  4.55D-01
 E= -3948.51930266630     Delta-E=       -0.000098665969 Rises=F Damp=F
 DIIS: error= 1.40D-05 at cycle   4 NSaved=   4.
 NSaved= 4 IEnMin= 4 EnMin= -3948.51930266630     IErMin= 4 ErrMin= 1.40D-05
 ErrMax= 1.40D-05 EMaxC= 1.00D-01 BMatC= 1.70D-06 BMatP= 3.77D-05
 IDIUse=1 WtCom= 1.00D+00 WtEn= 0.00D+00
 Coeff-Com: -0.344D-02 0.394D+00 0.220D+00 0.389D+00
 Coeff:     -0.344D-02 0.394D+00 0.220D+00 0.389D+00
 Gap=     0.135 Goal=   None    Shift=    0.000
 RMSDP=9.24D-07 MaxDP=9.95D-05 DE=-9.87D-05 OVMax= 1.90D-04

 Cycle  12  Pass 1  IDiag  1:
 RMSU=  2.30D-07    CP:  9.99D-01  1.01D+00  4.00D-01  4.79D-01
 E= -3948.51930440767     Delta-E=       -0.000001741373 Rises=F Damp=F
 DIIS: error= 2.01D-06 at cycle   5 NSaved=   5.
 NSaved= 5 IEnMin= 5 EnMin= -3948.51930440767     IErMin= 5 ErrMin= 2.01D-06
 ErrMax= 2.01D-06 EMaxC= 1.00D-01 BMatC= 2.29D-08 BMatP= 1.70D-06
 IDIUse=1 WtCom= 1.00D+00 WtEn= 0.00D+00
 Coeff-Com: -0.210D-02 0.213D+00 0.117D+00 0.230D+00 0.442D+00
 Coeff:     -0.210D-02 0.213D+00 0.117D+00 0.230D+00 0.442D+00
 Gap=     0.135 Goal=   None    Shift=    0.000
 RMSDP=1.34D-07 MaxDP=1.20D-05 DE=-1.74D-06 OVMax= 2.89D-05

 Cycle  13  Pass 1  IDiag  1:
 RMSU=  7.25D-08    CP:  9.99D-01  1.01D+00  3.99D-01  5.07D-01  7.53D-01
 E= -3948.51930443056     Delta-E=       -0.000000022890 Rises=F Damp=F
 DIIS: error= 6.78D-07 at cycle   6 NSaved=   6.
 NSaved= 6 IEnMin= 6 EnMin= -3948.51930443056     IErMin= 6 ErrMin= 6.78D-07
 ErrMax= 6.78D-07 EMaxC= 1.00D-01 BMatC= 2.75D-09 BMatP= 2.29D-08
 IDIUse=1 WtCom= 1.00D+00 WtEn= 0.00D+00
 Coeff-Com: -0.934D-03 0.902D-01 0.490D-01 0.102D+00 0.282D+00 0.478D+00
 Coeff:     -0.934D-03 0.902D-01 0.490D-01 0.102D+00 0.282D+00 0.478D+00
 Gap=     0.135 Goal=   None    Shift=    0.000
 RMSDP=4.95D-08 MaxDP=5.25D-06 DE=-2.29D-08 OVMax= 1.34D-05

 Cycle  14  Pass 1  IDiag  1:
 RMSU=  2.61D-08    CP:  9.99D-01  1.01D+00  3.99D-01  5.06D-01  8.07D-01
                    CP:  7.32D-01
 E= -3948.51930443326     Delta-E=       -0.000000002696 Rises=F Damp=F
 DIIS: error= 2.28D-07 at cycle   7 NSaved=   7.
 NSaved= 7 IEnMin= 7 EnMin= -3948.51930443326     IErMin= 7 ErrMin= 2.28D-07
 ErrMax= 2.28D-07 EMaxC= 1.00D-01 BMatC= 3.49D-10 BMatP= 2.75D-09
 IDIUse=1 WtCom= 1.00D+00 WtEn= 0.00D+00
 Coeff-Com: -0.215D-03 0.188D-01 0.100D-01 0.226D-01 0.968D-01 0.301D+00
 Coeff-Com:  0.551D+00
 Coeff:     -0.215D-03 0.188D-01 0.100D-01 0.226D-01 0.968D-01 0.301D+00
 Coeff:      0.551D+00
 Gap=     0.135 Goal=   None    Shift=    0.000
 RMSDP=1.58D-08 MaxDP=2.37D-06 DE=-2.70D-09 OVMax= 3.54D-06

 Cycle  15  Pass 1  IDiag  1:
 RMSU=  7.30D-09    CP:  9.99D-01  1.01D+00  3.99D-01  5.07D-01  8.08D-01
                    CP:  7.88D-01  7.24D-01
 E= -3948.51930443378     Delta-E=       -0.000000000520 Rises=F Damp=F
 DIIS: error= 7.63D-08 at cycle   8 NSaved=   8.
 NSaved= 8 IEnMin= 8 EnMin= -3948.51930443378     IErMin= 8 ErrMin= 7.63D-08
 ErrMax= 7.63D-08 EMaxC= 1.00D-01 BMatC= 2.97D-11 BMatP= 3.49D-10
 IDIUse=1 WtCom= 1.00D+00 WtEn= 0.00D+00
 Coeff-Com:  0.416D-05-0.147D-02-0.918D-03-0.941D-03 0.152D-01 0.105D+00
 Coeff-Com:  0.297D+00 0.586D+00
 Coeff:      0.416D-05-0.147D-02-0.918D-03-0.941D-03 0.152D-01 0.105D+00
 Coeff:      0.297D+00 0.586D+00
 Gap=     0.135 Goal=   None    Shift=    0.000
 RMSDP=5.23D-09 MaxDP=5.26D-07 DE=-5.20D-10 OVMax= 1.31D-06

 SCF Done:  E(RB3LYP) =  -3948.51930443     A.U. after   15 cycles
             Convg  =    0.5229D-08             -V/T =  2.0065
 KE= 3.922833457994D+03 PE=-4.246122159885D+04 EE= 1.795070656761D+04
 Leave Link  502 at Tue Feb  3 20:40:58 2015, MaxMem= 2147483648 cpu:   37689.9
 (Enter /opt/g09/l601.exe)
 Copying SCF densities to generalized density rwf, IOpCl= 0 IROHF=0.

 **********************************************************************

            Population analysis using the SCF density.

 **********************************************************************

 Orbital symmetries:
       Occupied  (A) (A) (A) (A) (A) (A) (A) (A) (A) (A) (A) (A)
                 (A) (A) (A) (A) (A) (A) (A) (A) (A) (A) (A) (A)
                 (A) (A) (A) (A) (A) (A) (A) (A) (A) (A) (A) (A)
                 (A) (A) (A) (A) (A) (A) (A) (A) (A) (A) (A) (A)
                 (A) (A) (A) (A) (A) (A) (A) (A) (A) (A) (A) (A)
                 (A) (A) (A) (A) (A) (A) (A) (A) (A) (A) (A) (A)
                 (A) (A) (A) (A) (A) (A) (A) (A) (A) (A) (A) (A)
                 (A) (A) (A) (A) (A) (A) (A) (A) (A) (A) (A) (A)
                 (A) (A) (A) (A) (A) (A) (A) (A) (A) (A) (A) (A)
                 (A) (A) (A) (A) (A) (A) (A) (A) (A) (A) (A) (A)
                 (A) (A) (A) (A) (A) (A) (A) (A) (A) (A) (A) (A)
                 (A) (A) (A) (A) (A) (A) (A) (A) (A) (A) (A) (A)
                 (A) (A) (A) (A) (A) (A) (A) (A) (A) (A) (A) (A)
                 (A) (A) (A) (A) (A) (A) (A) (A) (A) (A) (A) (A)
                 (A) (A) (A) (A) (A) (A) (A) (A) (A) (A) (A) (A)
                 (A) (A) (A) (A) (A) (A) (A) (A) (A) (A) (A) (A)
                 (A) (A) (A) (A) (A) (A) (A) (A) (A) (A) (A) (A)
                 (A) (A) (A) (A) (A) (A) (A) (A) (A) (A) (A) (A)
                 (A) (A) (A) (A) (A) (A) (A) (A) (A) (A) (A) (A)
                 (A) (A) (A) (A) (A) (A) (A) (A) (A) (A) (A) (A)
                 (A) (A) (A) (A) (A) (A) (A) (A) (A) (A) (A) (A)
                 (A) (A) (A) (A) (A) (A) (A) (A) (A) (A) (A) (A)
                 (A) (A) (A) (A) (A) (A) (A) (A) (A) (A) (A) (A)
                 (A) (A) (A) (A) (A) (A) (A) (A) (A) (A) (A) (A)
                 (A) (A) (A) (A) (A) (A) (A) (A) (A) (A) (A) (A)
                 (A) (A) (A) (A) (A) (A) (A) (A) (A) (A) (A) (A)
                 (A) (A) (A) (A) (A) (A) (A) (A) (A) (A) (A)
       Virtual   (A) (A) (A) (A) (A) (A) (A) (A) (A) (A) (A) (A)
                 (A) (A) (A) (A) (A) (A) (A) (A) (A) (A) (A) (A)
                 (A) (A) (A) (A) (A) (A) (A) (A) (A) (A) (A) (A)
                 (A) (A) (A) (A) (A) (A) (A) (A) (A) (A) (A) (A)
                 (A) (A) (A) (A) (A) (A) (A) (A) (A) (A) (A) (A)
                 (A) (A) (A) (A) (A) (A) (A) (A) (A) (A) (A) (A)
                 (A) (A) (A) (A) (A) (A) (A) (A) (A) (A) (A) (A)
                 (A) (A) (A) (A) (A) (A) (A) (A) (A) (A) (A) (A)
                 (A) (A) (A) (A) (A) (A) (A) (A) (A) (A) (A) (A)
                 (A) (A) (A) (A) (A) (A) (A) (A) (A) (A) (A) (A)
                 (A) (A) (A) (A) (A) (A) (A) (A) (A) (A) (A) (A)
                 (A) (A) (A) (A) (A) (A) (A) (A) (A) (A) (A) (A)
                 (A) (A) (A) (A) (A) (A) (A) (A) (A) (A) (A) (A)
                 (A) (A) (A) (A) (A) (A) (A) (A) (A) (A) (A) (A)
                 (A) (A) (A) (A) (A) (A) (A) (A) (A) (A) (A) (A)
                 (A) (A) (A) (A) (A) (A) (A) (A) (A) (A) (A) (A)
                 (A) (A) (A) (A) (A) (A) (A) (A) (A) (A) (A) (A)
                 (A) (A) (A) (A) (A) (A) (A) (A) (A) (A) (A) (A)
                 (A) (A) (A) (A) (A) (A) (A) (A) (A) (A) (A) (A)
                 (A) (A) (A) (A) (A) (A) (A) (A) (A) (A) (A) (A)
                 (A) (A) (A) (A) (A) (A) (A) (A) (A) (A) (A) (A)
                 (A) (A) (A) (A) (A) (A) (A) (A) (A) (A) (A) (A)
                 (A) (A) (A) (A) (A) (A) (A) (A) (A) (A) (A) (A)
                 (A) (A) (A) (A) (A) (A) (A) (A) (A) (A) (A) (A)
                 (A) (A) (A) (A) (A) (A) (A) (A) (A) (A) (A) (A)
                 (A) (A) (A) (A) (A) (A) (A) (A) (A) (A) (A) (A)
                 (A) (A) (A) (A) (A) (A) (A) (A) (A) (A) (A) (A)
                 (A) (A) (A) (A) (A) (A) (A) (A) (A) (A) (A) (A)
                 (A) (A) (A) (A) (A) (A) (A) (A) (A) (A) (A) (A)
                 (A) (A) (A) (A) (A) (A) (A) (A) (A) (A) (A) (A)
                 (A) (A) (A) (A) (A) (A) (A) (A) (A) (A) (A) (A)
                 (A) (A) (A) (A) (A) (A) (A) (A) (A) (A) (A) (A)
                 (A) (A) (A) (A) (A) (A) (A) (A) (A) (A) (A) (A)
                 (A) (A) (A) (A) (A) (A) (A) (A) (A) (A) (A) (A)
                 (A) (A) (A) (A) (A) (A) (A) (A) (A) (A) (A) (A)
                 (A) (A) (A) (A) (A) (A) (A) (A) (A) (A) (A) (A)
                 (A) (A) (A) (A) (A) (A) (A) (A) (A) (A) (A) (A)
                 (A) (A) (A) (A) (A) (A) (A) (A) (A) (A) (A) (A)
                 (A) (A) (A) (A) (A) (A) (A) (A) (A) (A) (A) (A)
                 (A) (A) (A) (A) (A) (A) (A) (A) (A) (A) (A) (A)
                 (A) (A) (A) (A) (A) (A) (A) (A) (A) (A) (A) (A)
                 (A) (A) (A) (A) (A) (A) (A) (A) (A) (A) (A) (A)
                 (A) (A) (A) (A) (A) (A) (A) (A) (A) (A) (A) (A)
                 (A) (A) (A) (A) (A) (A) (A) (A) (A) (A) (A) (A)
                 (A) (A) (A) (A) (A) (A) (A) (A) (A) (A) (A) (A)
                 (A) (A) (A) (A) (A) (A) (A) (A) (A) (A) (A) (A)
                 (A) (A) (A) (A) (A) (A) (A) (A) (A) (A) (A) (A)
                 (A) (A) (A) (A) (A) (A) (A) (A) (A) (A) (A) (A)
                 (A) (A) (A) (A) (A) (A) (A) (A) (A) (A) (A) (A)
                 (A) (A) (A) (A) (A) (A) (A) (A) (A) (A) (A) (A)
                 (A) (A) (A) (A) (A) (A) (A) (A) (A) (A) (A) (A)
                 (A) (A) (A) (A) (A) (A) (A) (A) (A) (A) (A) (A)
                 (A) (A) (A) (A) (A) (A) (A) (A) (A) (A) (A) (A)
                 (A) (A) (A) (A) (A) (A) (A) (A) (A) (A) (A) (A)
                 (A) (A) (A) (A) (A) (A) (A) (A) (A) (A) (A) (A)
                 (A) (A) (A) (A) (A) (A) (A) (A) (A) (A) (A) (A)
                 (A) (A) (A) (A) (A) (A) (A) (A) (A) (A) (A) (A)
                 (A) (A) (A) (A) (A) (A) (A) (A) (A) (A) (A) (A)
                 (A) (A) (A) (A) (A) (A) (A) (A) (A) (A) (A) (A)
                 (A) (A) (A) (A) (A) (A) (A) (A) (A) (A) (A) (A)
                 (A) (A) (A) (A) (A) (A) (A) (A) (A) (A) (A) (A)
                 (A) (A) (A) (A) (A) (A) (A) (A) (A) (A) (A) (A)
                 (A) (A) (A) (A) (A) (A) (A) (A) (A) (A) (A) (A)
                 (A) (A) (A) (A) (A) (A) (A) (A) (A) (A) (A) (A)
                 (A) (A) (A) (A) (A) (A) (A) (A) (A) (A) (A) (A)
                 (A) (A) (A) (A) (A) (A) (A) (A) (A) (A) (A) (A)
                 (A) (A) (A) (A) (A) (A) (A) (A) (A) (A) (A) (A)
                 (A) (A) (A) (A) (A) (A) (A) (A) (A) (A) (A) (A)
                 (A) (A) (A) (A) (A) (A) (A) (A) (A) (A) (A) (A)
                 (A) (A) (A) (A) (A) (A) (A) (A) (A) (A) (A) (A)
                 (A) (A) (A) (A) (A) (A) (A) (A) (A) (A) (A) (A)
                 (A) (A) (A) (A) (A) (A) (A) (A) (A) (A) (A) (A)
                 (A) (A) (A) (A) (A) (A) (A) (A) (A) (A) (A) (A)
                 (A) (A) (A) (A) (A) (A) (A) (A) (A) (A) (A) (A)
                 (A) (A) (A) (A) (A) (A) (A) (A) (A) (A) (A) (A)
                 (A) (A) (A) (A) (A) (A) (A) (A) (A) (A) (A) (A)
                 (A) (A) (A) (A) (A) (A) (A) (A) (A) (A) (A) (A)
                 (A) (A) (A) (A) (A) (A) (A) (A) (A) (A) (A) (A)
                 (A) (A) (A) (A) (A) (A) (A) (A) (A) (A) (A) (A)
                 (A) (A) (A) (A) (A) (A) (A) (A) (A) (A) (A) (A)
                 (A) (A) (A) (A) (A) (A) (A) (A) (A) (A) (A) (A)
                 (A) (A) (A) (A) (A) (A) (A) (A) (A) (A) (A) (A)
                 (A) (A) (A) (A) (A) (A) (A) (A) (A) (A) (A) (A)
                 (A) (A) (A) (A) (A) (A) (A) (A) (A) (A) (A) (A)
                 (A) (A) (A) (A) (A) (A) (A) (A) (A) (A) (A) (A)
                 (A) (A) (A) (A) (A) (A) (A) (A) (A) (A) (A) (A)
                 (A) (A) (A) (A) (A) (A) (A) (A) (A) (A) (A) (A)
                 (A) (A) (A) (A) (A) (A) (A) (A) (A) (A) (A) (A)
                 (A) (A) (A) (A) (A) (A) (A) (A) (A) (A) (A) (A)
                 (A) (A) (A) (A) (A) (A) (A) (A) (A) (A) (A) (A)
                 (A) (A) (A) (A) (A) (A) (A) (A) (A) (A) (A) (A)
                 (A) (A) (A) (A) (A) (A) (A) (A) (A) (A) (A) (A)
                 (A) (A) (A) (A) (A) (A) (A) (A) (A) (A) (A) (A)
                 (A) (A) (A) (A) (A) (A) (A) (A) (A) (A) (A) (A)
                 (A) (A) (A) (A) (A) (A) (A) (A) (A) (A) (A) (A)
                 (A) (A) (A) (A) (A) (A) (A) (A) (A) (A) (A) (A)
                 (A) (A) (A) (A) (A) (A) (A) (A) (A) (A) (A) (A)
                 (A) (A) (A) (A) (A) (A) (A) (A) (A) (A) (A) (A)
                 (A) (A) (A) (A) (A) (A) (A) (A) (A) (A) (A) (A)
                 (A) (A) (A) (A) (A) (A) (A) (A) (A) (A) (A) (A)
                 (A) (A) (A) (A) (A) (A) (A) (A) (A) (A) (A) (A)
                 (A) (A) (A) (A) (A) (A) (A) (A) (A) (A) (A) (A)
                 (A) (A) (A) (A) (A) (A) (A) (A) (A) (A) (A) (A)
                 (A) (A) (A) (A) (A) (A) (A) (A) (A) (A) (A) (A)
                 (A) (A) (A) (A) (A) (A) (A) (A) (A) (A) (A) (A)
                 (A) (A) (A) (A) (A) (A) (A) (A) (A) (A) (A) (A)
                 (A) (A) (A) (A) (A) (A) (A) (A) (A) (A) (A) (A)
                 (A) (A) (A) (A) (A) (A) (A) (A) (A) (A) (A) (A)
                 (A) (A) (A) (A) (A) (A) (A) (A) (A) (A) (A) (A)
                 (A) (A) (A) (A) (A) (A) (A) (A) (A) (A) (A)
 The electronic state is 1-A.
 Alpha  occ. eigenvalues --  -19.17483 -19.16907 -19.16828 -19.16718 -19.16558
 Alpha  occ. eigenvalues --  -19.16528 -19.16428 -19.16329 -14.35554 -14.35498
 Alpha  occ. eigenvalues --  -14.35328 -14.35301 -10.25084 -10.24570 -10.24469
 Alpha  occ. eigenvalues --  -10.24440 -10.24329 -10.24230 -10.24188 -10.24149
 Alpha  occ. eigenvalues --  -10.24130 -10.24007 -10.23978 -10.23928 -10.23847
 Alpha  occ. eigenvalues --  -10.23833 -10.23517 -10.23509 -10.22733 -10.22610
 Alpha  occ. eigenvalues --  -10.22564 -10.22564 -10.22546 -10.22535 -10.22437
 Alpha  occ. eigenvalues --  -10.22395 -10.22356 -10.22335 -10.22316 -10.22198
 Alpha  occ. eigenvalues --  -10.20760 -10.19379 -10.19227 -10.19132 -10.19122
 Alpha  occ. eigenvalues --  -10.18825 -10.18822 -10.18791 -10.18782 -10.18778
 Alpha  occ. eigenvalues --  -10.18723 -10.18705 -10.18664 -10.18644 -10.18512
 Alpha  occ. eigenvalues --  -10.18508 -10.18469 -10.18422 -10.18390 -10.18357
 Alpha  occ. eigenvalues --  -10.18353 -10.18299 -10.18264 -10.18233 -10.18233
 Alpha  occ. eigenvalues --  -10.18140 -10.18126 -10.18108 -10.18077 -10.18048
 Alpha  occ. eigenvalues --  -10.17992 -10.17964 -10.17959 -10.17953 -10.17927
 Alpha  occ. eigenvalues --  -10.17915 -10.17913 -10.17899 -10.17884 -10.17861
 Alpha  occ. eigenvalues --  -10.17793 -10.17789 -10.17644 -10.17619 -10.17567
 Alpha  occ. eigenvalues --  -10.17566 -10.17535 -10.17454 -10.17437 -10.17410
 Alpha  occ. eigenvalues --  -10.17364 -10.17259 -10.17203  -1.07335  -1.06591
 Alpha  occ. eigenvalues --   -1.06487  -1.06386  -1.06250  -1.06202  -1.06114
 Alpha  occ. eigenvalues --   -1.05961  -0.96218  -0.96160  -0.96007  -0.95960
 Alpha  occ. eigenvalues --   -0.89651  -0.86735  -0.85516  -0.85247  -0.85095
 Alpha  occ. eigenvalues --   -0.84976  -0.84765  -0.84621  -0.83963  -0.83713
 Alpha  occ. eigenvalues --   -0.82716  -0.82657  -0.80144  -0.78066  -0.76774
 Alpha  occ. eigenvalues --   -0.76198  -0.76111  -0.75920  -0.75717  -0.75648
 Alpha  occ. eigenvalues --   -0.75580  -0.75447  -0.75172  -0.75010  -0.74821
 Alpha  occ. eigenvalues --   -0.74728  -0.74618  -0.74207  -0.74006  -0.73880
 Alpha  occ. eigenvalues --   -0.73759  -0.73381  -0.72133  -0.72062  -0.70125
 Alpha  occ. eigenvalues --   -0.69975  -0.69620  -0.69555  -0.69450  -0.69352
 Alpha  occ. eigenvalues --   -0.69259  -0.69144  -0.68159  -0.68136  -0.68032
 Alpha  occ. eigenvalues --   -0.64262  -0.63705  -0.62754  -0.62556  -0.62249
 Alpha  occ. eigenvalues --   -0.62035  -0.61392  -0.60770  -0.60599  -0.60121
 Alpha  occ. eigenvalues --   -0.59946  -0.59524  -0.59457  -0.59230  -0.59074
 Alpha  occ. eigenvalues --   -0.58739  -0.58675  -0.58158  -0.57988  -0.57760
 Alpha  occ. eigenvalues --   -0.56758  -0.56302  -0.56197  -0.55564  -0.54209
 Alpha  occ. eigenvalues --   -0.54153  -0.53917  -0.53762  -0.53343  -0.53034
 Alpha  occ. eigenvalues --   -0.52865  -0.51892  -0.51234  -0.50507  -0.50011
 Alpha  occ. eigenvalues --   -0.49812  -0.49260  -0.49108  -0.48980  -0.48863
 Alpha  occ. eigenvalues --   -0.48779  -0.48687  -0.48484  -0.48332  -0.48276
 Alpha  occ. eigenvalues --   -0.48172  -0.48009  -0.47982  -0.47895  -0.47708
 Alpha  occ. eigenvalues --   -0.47691  -0.47610  -0.47154  -0.47092  -0.46786
 Alpha  occ. eigenvalues --   -0.46760  -0.46634  -0.46603  -0.46505  -0.46443
 Alpha  occ. eigenvalues --   -0.46433  -0.46341  -0.46232  -0.46144  -0.46079
 Alpha  occ. eigenvalues --   -0.45629  -0.45334  -0.45196  -0.44209  -0.43888
 Alpha  occ. eigenvalues --   -0.43666  -0.43544  -0.43404  -0.43203  -0.43113
 Alpha  occ. eigenvalues --   -0.43025  -0.42699  -0.42628  -0.42551  -0.42526
 Alpha  occ. eigenvalues --   -0.42460  -0.42206  -0.42047  -0.41798  -0.41729
 Alpha  occ. eigenvalues --   -0.41663  -0.41479  -0.41257  -0.41105  -0.40939
 Alpha  occ. eigenvalues --   -0.40801  -0.40593  -0.39903  -0.39429  -0.39366
 Alpha  occ. eigenvalues --   -0.38329  -0.38121  -0.38100  -0.37995  -0.37766
 Alpha  occ. eigenvalues --   -0.37723  -0.37716  -0.37689  -0.37629  -0.37535
 Alpha  occ. eigenvalues --   -0.37330  -0.37283  -0.37042  -0.36992  -0.36801
 Alpha  occ. eigenvalues --   -0.36796  -0.36764  -0.36687  -0.36604  -0.36483
 Alpha  occ. eigenvalues --   -0.36411  -0.36290  -0.36193  -0.36109  -0.35885
 Alpha  occ. eigenvalues --   -0.35805  -0.35559  -0.35275  -0.35155  -0.34993
 Alpha  occ. eigenvalues --   -0.34155  -0.33726  -0.33477  -0.33306  -0.33184
 Alpha  occ. eigenvalues --   -0.32963  -0.32917  -0.32876  -0.32825  -0.32672
 Alpha  occ. eigenvalues --   -0.32546  -0.32519  -0.32497  -0.32387  -0.32313
 Alpha  occ. eigenvalues --   -0.32011  -0.31968  -0.31921  -0.31815  -0.31670
 Alpha  occ. eigenvalues --   -0.30550  -0.30220  -0.29125  -0.28811  -0.26903
 Alpha  occ. eigenvalues --   -0.26804  -0.26242  -0.25916  -0.25760  -0.25451
 Alpha  occ. eigenvalues --   -0.25358  -0.24508  -0.24249  -0.24129  -0.23869
 Alpha  occ. eigenvalues --   -0.22962  -0.22756  -0.22393  -0.22182  -0.22113
 Alpha  occ. eigenvalues --   -0.21924  -0.21596  -0.21514  -0.21406  -0.19015
 Alpha  occ. eigenvalues --   -0.18968  -0.16990  -0.16826
 Alpha virt. eigenvalues --   -0.03308  -0.03103  -0.02006  -0.01921  -0.01598
 Alpha virt. eigenvalues --   -0.01395  -0.01202  -0.00984  -0.00754  -0.00289
 Alpha virt. eigenvalues --    0.00305   0.00414   0.00665   0.00819   0.01157
 Alpha virt. eigenvalues --    0.01356   0.01607   0.01671   0.01743   0.02133
 Alpha virt. eigenvalues --    0.02840   0.02920   0.04123   0.04873   0.05387
 Alpha virt. eigenvalues --    0.05938   0.06179   0.06511   0.06544   0.06627
 Alpha virt. eigenvalues --    0.06756   0.06802   0.07432   0.07657   0.07878
 Alpha virt. eigenvalues --    0.08009   0.08221   0.08446   0.08498   0.08567
 Alpha virt. eigenvalues --    0.09075   0.09512   0.09688   0.09856   0.10256
 Alpha virt. eigenvalues --    0.10299   0.10376   0.11053   0.11234   0.11333
 Alpha virt. eigenvalues --    0.11404   0.11446   0.11565   0.11735   0.11803
 Alpha virt. eigenvalues --    0.11924   0.12047   0.12245   0.12381   0.12429
 Alpha virt. eigenvalues --    0.12512   0.12547   0.12762   0.12879   0.12941
 Alpha virt. eigenvalues --    0.12964   0.13042   0.13104   0.13208   0.13245
 Alpha virt. eigenvalues --    0.13317   0.13348   0.13419   0.13478   0.13573
 Alpha virt. eigenvalues --    0.13606   0.13628   0.13709   0.13733   0.13840
 Alpha virt. eigenvalues --    0.13955   0.14012   0.14148   0.14260   0.14482
 Alpha virt. eigenvalues --    0.14745   0.14894   0.14933   0.15000   0.15189
 Alpha virt. eigenvalues --    0.15217   0.15350   0.15480   0.15555   0.15746
 Alpha virt. eigenvalues --    0.16156   0.16225   0.16290   0.16372   0.16499
 Alpha virt. eigenvalues --    0.16639   0.17025   0.17125   0.17585   0.17755
 Alpha virt. eigenvalues --    0.17835   0.18104   0.18224   0.18516   0.18667
 Alpha virt. eigenvalues --    0.19126   0.19555   0.19659   0.19865   0.20504
 Alpha virt. eigenvalues --    0.21402   0.21511   0.21807   0.23470   0.23683
 Alpha virt. eigenvalues --    0.23972   0.24073   0.24176   0.24454   0.24506
 Alpha virt. eigenvalues --    0.24693   0.24795   0.24997   0.25393   0.25733
 Alpha virt. eigenvalues --    0.26066   0.26499   0.26557   0.26875   0.27036
 Alpha virt. eigenvalues --    0.27272   0.27400   0.27486   0.27782   0.27880
 Alpha virt. eigenvalues --    0.28056   0.28149   0.28284   0.28363   0.28459
 Alpha virt. eigenvalues --    0.28590   0.28646   0.28750   0.29066   0.29084
 Alpha virt. eigenvalues --    0.29349   0.29414   0.29492   0.29902   0.30184
 Alpha virt. eigenvalues --    0.30493   0.30918   0.31783   0.32290   0.32645
 Alpha virt. eigenvalues --    0.32879   0.33434   0.33976   0.34618   0.34749
 Alpha virt. eigenvalues --    0.34916   0.35263   0.35652   0.35904   0.36461
 Alpha virt. eigenvalues --    0.36664   0.36918   0.37180   0.37305   0.37585
 Alpha virt. eigenvalues --    0.37924   0.37999   0.38335   0.38640   0.38963
 Alpha virt. eigenvalues --    0.39091   0.39306   0.39462   0.39735   0.40369
[...]
 Alpha virt. eigenvalues --    1.78458   1.78768   1.78943   1.79079   1.79274
 Alpha virt. eigenvalues --    1.79353   1.79502   1.79618   1.79875   1.79975
 Alpha virt. eigenvalues --    1.80151   1.80386   1.80636   1.80849   1.80964
 Alpha virt. eigenvalues --    1.80979   1.81212   1.81664   1.81946   1.82043
 Alpha virt. eigenvalues --    1.82211   1.82279   1.82797   1.83092   1.83379
 Alpha virt. eigenvalues --    1.83456   1.83551   1.83898   1.84027   1.84395
 Alpha virt. eigenvalues --    1.84557   1.84600   1.85012   1.85126   1.85236
 Alpha virt. eigenvalues --    1.85448   1.85669   1.85857   1.86012   1.86201
 Alpha virt. eigenvalues --    1.86399   1.86650   1.86781   1.86826   1.86918
 Alpha virt. eigenvalues --    1.87033   1.87231   1.87397   1.87555   1.87642
 Alpha virt. eigenvalues --    1.87799   1.87832   1.88022   1.88370   1.88576
 Alpha virt. eigenvalues --    1.88606   1.88690   1.88807   1.88849   1.88952
 Alpha virt. eigenvalues --    1.89139   1.89262   1.89609   1.89876   1.90008
 Alpha virt. eigenvalues --    1.90369   1.90428   1.90568   1.90709   1.91030
 Alpha virt. eigenvalues --    1.91250   1.91698   1.91917   1.92168   1.92443
 Alpha virt. eigenvalues --    1.92819   1.92992   1.93093   1.93552   1.93699
 Alpha virt. eigenvalues --    1.94056   1.94424   1.94975   1.95427   1.95506
 Alpha virt. eigenvalues --    1.95629   1.95840   1.96272   1.96445   1.96684
 Alpha virt. eigenvalues --    1.96767   1.97182   1.97501   1.97840   1.98107
 Alpha virt. eigenvalues --    1.98445   1.99071   1.99339   1.99861   1.99968
 Alpha virt. eigenvalues --    2.00439   2.00801   2.01213   2.01456   2.01564
 Alpha virt. eigenvalues --    2.01653   2.02035   2.02494   2.02725   2.03054
 Alpha virt. eigenvalues --    2.03326   2.03407   2.03821   2.03944   2.04117
 Alpha virt. eigenvalues --    2.04586   2.04633   2.04813   2.05126   2.05236
 Alpha virt. eigenvalues --    2.05425   2.05611   2.05675   2.05817   2.05936
 Alpha virt. eigenvalues --    2.06099   2.06133   2.06359   2.06395   2.06543
 Alpha virt. eigenvalues --    2.06657   2.06784   2.06982   2.07022   2.07176
 Alpha virt. eigenvalues --    2.07300   2.07409   2.07618   2.08000   2.08409
 Alpha virt. eigenvalues --    2.08508   2.09050   2.09647   2.09824   2.10145
 Alpha virt. eigenvalues --    2.10479   2.10660   2.11031   2.11167   2.11829
 Alpha virt. eigenvalues --    2.12769   2.12860   2.13035   2.13130   2.13619
 Alpha virt. eigenvalues --    2.14070   2.14116   2.14628   2.15113   2.15454
 Alpha virt. eigenvalues --    2.15731   2.15975   2.16313   2.16683   2.16706
 Alpha virt. eigenvalues --    2.16866   2.17072   2.17297   2.17698   2.17832
 Alpha virt. eigenvalues --    2.17887   2.18247   2.18511   2.18727   2.19213
 Alpha virt. eigenvalues --    2.19490   2.19637   2.20182   2.20674   2.21032
 Alpha virt. eigenvalues --    2.21271   2.21456   2.21579   2.22078   2.22365
 Alpha virt. eigenvalues --    2.22766   2.22890   2.23066   2.23219   2.23530
 Alpha virt. eigenvalues --    2.23633   2.23922   2.24128   2.24243   2.24610
 Alpha virt. eigenvalues --    2.25271   2.25762   2.25773   2.26059   2.26502
 Alpha virt. eigenvalues --    2.26615   2.26849   2.27071   2.27264   2.27472
 Alpha virt. eigenvalues --    2.27664   2.27940   2.28102   2.28231   2.28632
 Alpha virt. eigenvalues --    2.28929   2.29082   2.29635   2.29896   2.30750
 Alpha virt. eigenvalues --    2.31802   2.32062   2.32861   2.33232   2.33916
 Alpha virt. eigenvalues --    2.34510   2.36737   2.38055   2.38639   2.39113
 Alpha virt. eigenvalues --    2.39173   2.39253   2.39369   2.39489   2.39546
 Alpha virt. eigenvalues --    2.39628   2.39990   2.40345   2.41115   2.41561
 Alpha virt. eigenvalues --    2.41805   2.42122   2.42176   2.42432   2.42772
 Alpha virt. eigenvalues --    2.42914   2.42955   2.43064   2.43201   2.43434
 Alpha virt. eigenvalues --    2.43546   2.44061   2.44257   2.44401   2.44617
 Alpha virt. eigenvalues --    2.44771   2.45228   2.45498   2.45720   2.45854
 Alpha virt. eigenvalues --    2.46181   2.46400   2.46876   2.47411   2.48345
 Alpha virt. eigenvalues --    2.48793   2.48918   2.49039   2.49344   2.49494
 Alpha virt. eigenvalues --    2.49537   2.49791   2.49850   2.50016   2.50175
 Alpha virt. eigenvalues --    2.50510   2.50935   2.51150   2.51496   2.52200
 Alpha virt. eigenvalues --    2.52735   2.53061   2.53602   2.54306   2.54428
 Alpha virt. eigenvalues --    2.55270   2.55963   2.56529   2.57043   2.57108
 Alpha virt. eigenvalues --    2.58164   2.58536   2.58704   2.58872   2.59227
 Alpha virt. eigenvalues --    2.60134   2.61218   2.62125   2.62650   2.64829
 Alpha virt. eigenvalues --    2.65247   2.65399   2.66225   2.66286   2.66528
 Alpha virt. eigenvalues --    2.66686   2.67082   2.67177   2.67310   2.68788
 Alpha virt. eigenvalues --    2.69024   2.69636   2.69943   2.70069   2.70566
 Alpha virt. eigenvalues --    2.71666   2.71816   2.72328   2.72859   2.73203
 Alpha virt. eigenvalues --    2.73730   2.76031   2.76159   2.77391   2.77790
 Alpha virt. eigenvalues --    2.78778   2.78926   2.79139   2.79670   2.79943
 Alpha virt. eigenvalues --    2.80151   2.80327   2.80614   2.80773   2.81119
 Alpha virt. eigenvalues --    2.82599   2.83485   2.84171   2.84618   2.85296
 Alpha virt. eigenvalues --    2.85369   2.85987   2.86139   2.86469   2.86723
 Alpha virt. eigenvalues --    2.86864   2.87917   2.88004   2.88138   2.88171
 Alpha virt. eigenvalues --    2.88412   2.88460   2.88661   2.88901   2.89042
 Alpha virt. eigenvalues --    2.92356   2.93859   2.94699   2.95096   2.96752
 Alpha virt. eigenvalues --    2.98317   2.99826   3.02274   3.02764   3.02885
 Alpha virt. eigenvalues --    3.02960   3.03059   3.03151   3.03172   3.03261
 Alpha virt. eigenvalues --    3.03402   3.03605   3.03709   3.03899   3.03930
 Alpha virt. eigenvalues --    3.04774   3.05232   3.06569   3.06711   3.07309
 Alpha virt. eigenvalues --    3.07794   3.08412   3.09474   3.10597   3.10672
 Alpha virt. eigenvalues --    3.13653   3.27640   3.28096   3.28143   3.28392
 Alpha virt. eigenvalues --    3.28898   3.29018   3.29296   3.30778   3.39660
 Alpha virt. eigenvalues --    3.40351   3.40520   3.40633   3.40769   3.40900
 Alpha virt. eigenvalues --    3.41022   3.41136   3.41724   3.42644   3.55095
 Alpha virt. eigenvalues --    3.55231   3.64587   3.64893   3.65144   3.65410
 Alpha virt. eigenvalues --    3.65770   3.66052   3.66167   3.66457
          Condensed to atoms (all electrons):
 Mulliken atomic charges:
              1
     1  C   -0.296133
     2  C    0.094203
     3  C    0.040471
     4  C    0.042994
     5  C    0.090472
     6  C    0.093542
     7  C    0.044190
     8  C    0.042517
     9  C    0.096356
    10  C    0.022145
    11  C    0.072437
    12  C    0.064785
    13  C   -0.012390
    14  C   -0.010764
    15  C    0.067161
    16  C    0.078105
    17  C    0.018608
    18  C    0.018219
    19  C    0.106629
    20  C    0.047647
    21  C   -0.012208
    22  C   -0.012366
    23  C    0.053327
    24  C    0.104379
    25  C    0.001321
    26  N   -0.279257
    27  N   -0.279397
    28  N   -0.281338
    29  N   -0.280158
    30  C    0.008161
    31  C   -0.023073
    32  C    0.055795
    33  C    0.083936
    34  C    0.069872
    35  C    0.057957
    36  C    0.053044
    37  C    0.071493
    38  C    0.036058
    39  C    0.056841
    40  C   -0.025229
    41  C    0.132205
    42  C    0.042675
    43  C    0.039990
    44  C    0.132180
    45  C   -0.022822
    46  C    0.048726
    47  C    0.018218
    48  C    0.045340
    49  C    0.133842
    50  C   -0.025141
    51  C    0.053235
    52  C    0.026968
    53  C    0.038045
    54  C    0.131330
    55  C   -0.023442
    56  C    0.047183
    57  C    0.016490
    58  C    0.101865
    59  C    0.042767
    60  C    0.049104
    61  C   -0.012350
    62  C    0.144626
    63  C   -0.010666
    64  C    0.134160
    65  C    0.029670
    66  C    0.063503
    67  C    0.015998
    68  C   -0.016756
    69  C    0.142075
    70  C    0.030828
    71  C    0.065156
    72  C    0.020784
    73  C    0.036188
    74  C    0.067144
    75  C    0.032137
    76  C    0.138944
    77  C    0.014669
    78  H   -0.030647
    79  H   -0.041487
    80  H   -0.028503
    81  H   -0.054919
    82  H   -0.055558
    83  H   -0.032133
    84  H   -0.056487
    85  H   -0.027192
    86  H   -0.055614
    87  H   -0.032729
    88  H   -0.038622
    89  H   -0.039896
    90  H   -0.037897
    91  H   -0.039847
    92  H   -0.040851
    93  H   -0.041821
    94  O   -0.280439
    95  H   -0.025375
    96  H   -0.029439
    97  O   -0.283215
    98  H   -0.034048
    99  H   -0.036049
   100  H   -0.027148
   101  H   -0.028135
   102  H   -0.032026
   103  H   -0.034401
   104  O   -0.280258
   105  H   -0.029222
   106  O   -0.285751
   107  H   -0.027875
   108  H   -0.036485
   109  H   -0.041871
   110  O   -0.271090
   111  H   -0.038146
   112  H   -0.061947
   113  H   -0.033279
   114  H   -0.030524
   115  O   -0.283107
   116  H   -0.038383
   117  O   -0.282307
   118  H   -0.026235
   119  H   -0.027722
   120  H   -0.028558
   121  H   -0.031114
   122  H   -0.038800
   123  O   -0.281547
   124  H   -0.028143
   125  H   -0.034273
   126  H   -0.041363
   127  H   -0.042787
   128  H   -0.035663
   129  C    0.131908
   130  H    0.028099
   131  H    0.029659
   132  H    0.030278
   133  H   -0.032835
   134  C    0.124881
   135  H    0.029262
   136  H    0.041453
   137  H    0.029986
   138  C    0.109257
   139  C    0.130763
   140  H    0.032307
   141  H    0.031477
   142  H    0.026679
   143  H    0.035268
   144  H    0.049734
   145  H    0.027898
   146  C    0.130960
   147  H    0.033237
   148  H    0.025420
   149  H    0.025108
   150  C    0.131556
   151  H    0.031961
   152  H    0.026223
   153  H    0.024922
   154  C    0.131265
   155  C    0.130813
   156  H    0.033176
   157  H    0.025232
   158  H    0.025915
   159  H    0.031636
   160  H    0.026064
   161  H    0.026150
 Sum of Mulliken atomic charges =   0.00000
 Mulliken charges with hydrogens summed into heavy atoms:
              1
     1  C   -0.296133
     2  C    0.094203
     3  C    0.040471
     4  C    0.042994
     5  C    0.090472
     6  C    0.093542
     7  C    0.044190
     8  C    0.042517
     9  C    0.096356
    10  C   -0.017750
    11  C    0.072437
    12  C    0.032056
    13  C   -0.068004
    14  C   -0.066322
    15  C    0.035028
    16  C    0.078105
    17  C   -0.020014
    18  C   -0.023269
    19  C    0.106629
    20  C    0.019144
    21  C   -0.067127
    22  C   -0.068853
    23  C    0.026135
    24  C    0.104379
    25  C   -0.029326
    26  N   -0.279257
    27  N   -0.279397
    28  N   -0.281338
    29  N   -0.280158
    30  C    0.008161
    31  C   -0.023073
    32  C    0.055795
    33  C    0.083936
    34  C    0.069872
    35  C    0.057957
    36  C    0.053044
    37  C    0.071493
    38  C    0.000009
    39  C    0.022793
    40  C   -0.066080
    41  C    0.132205
    42  C    0.017300
    43  C    0.010551
    44  C    0.132180
    45  C   -0.064643
    46  C    0.021578
    47  C   -0.009916
    48  C    0.017196
    49  C    0.133842
    50  C   -0.066504
    51  C    0.014435
    52  C   -0.004146
    53  C    0.011809
    54  C    0.131330
    55  C   -0.066229
    56  C    0.019460
    57  C   -0.012069
    58  C    0.039918
    59  C    0.004621
    60  C    0.014831
    61  C   -0.045185
    62  C    0.144626
    63  C   -0.038540
    64  C    0.134160
    65  C   -0.010177
    66  C    0.027018
    67  C   -0.025873
    68  C   -0.045978
    69  C    0.142075
    70  C   -0.007069
    71  C    0.030755
    72  C   -0.011242
    73  C    0.002909
    74  C    0.036620
    75  C   -0.003526
    76  C    0.138944
    77  C   -0.023714
    94  O   -0.280439
    97  O   -0.283215
   104  O   -0.280258
   106  O   -0.285751
   110  O   -0.271090
   115  O   -0.283107
   117  O   -0.282307
   123  O   -0.281547
   129  C    0.219944
   134  C    0.225583
   138  C    0.222156
   139  C    0.221226
   146  C    0.214724
   150  C    0.214662
   154  C    0.215115
   155  C    0.215135
 Sum of Mulliken charges with hydrogens summed into heavy atoms =   0.00000
 Electronic spatial extent (au):  <R**2>=         101936.5966
 Charge=              0.0000 electrons
 Dipole moment (field-independent basis, Debye):
    X=             -2.1186    Y=              1.2443    Z=              1.7999  Tot=              3.0457
 Quadrupole moment (field-independent basis, Debye-Ang):
   XX=           -483.8956   YY=           -495.1280   ZZ=           -504.0234
   XY=             -5.2859   XZ=            -22.8646   YZ=            -19.0893
 Traceless Quadrupole moment (field-independent basis, Debye-Ang):
   XX=             10.4533   YY=             -0.7790   ZZ=             -9.6744
   XY=             -5.2859   XZ=            -22.8646   YZ=            -19.0893
 Octapole moment (field-independent basis, Debye-Ang**2):
  XXX=           -190.2646  YYY=            119.8076  ZZZ=              1.4507  XYY=             67.4491
  XXY=            123.3229  XXZ=             34.2220  XZZ=            -65.8683  YZZ=            145.9513
  YYZ=            126.5546  XYZ=             40.1576
 Hexadecapole moment (field-independent basis, Debye-Ang**3):
 XXXX=         -61801.9656 YYYY=         -46755.2018 ZZZZ=         -20707.2106 XXXY=           -870.9814
 XXXZ=          -3032.9829 YYYX=           -400.1897 YYYZ=           -117.6361 ZZZX=           -687.5546
 ZZZY=            -91.3246 XXYY=         -18054.7585 XXZZ=         -12912.0133 YYZZ=         -10885.9283
 XXYZ=           -932.5480 YYXZ=            404.9037 ZZXY=             -4.2439
 N-N= 1.663916226882D+04 E-N=-4.246122176019D+04  KE= 3.922833457994D+03
 Leave Link  601 at Tue Feb  3 20:41:06 2015, MaxMem= 2147483648 cpu:      85.8
 (Enter /opt/g09/l9999.exe)
 1\1\GINC-CHPC-SCANDIUM\SP\RB3LYP\CC-pVDZ\C81H68N4O8\JARVIST\03-Feb-201
 5\0\\#p sp B3LYP/cc-pVDZ\\Auto Spiro; and yes I said yes I will Yes.\\
 0,1\C,0,0.175792,-0.131311,0.013942\C,0,-0.399155,-1.189373,-0.939345\
 C,0,-0.152575,-0.831818,-2.277952\C,0,0.550474,0.453299,-2.301297\C,0,
 0.737122,0.892035,-0.975397\C,0,-0.875002,0.404639,0.99084\C,0,-0.5112
 51,0.108103,2.319409\C,0,0.784866,-0.573948,2.311164\C,0,1.226888,-0.6
 92915,0.979959\C,0,-2.065738,1.048314,0.694845\C,0,-2.91566,1.439203,1
 .74645\C,0,-2.542766,1.162234,3.075189\C,0,-1.356627,0.490414,3.363957
 \C,0,1.00863,1.246127,-3.356502\C,0,1.636404,2.458827,-3.080995\C,0,1.
 839592,2.88799,-1.755636\C,0,1.385044,2.084144,-0.693332\C,0,-1.119882
 ,-2.326876,-0.611232\C,0,-1.607727,-3.156802,-1.640349\C,0,-1.309092,-
 2.829449,-2.980328\C,0,-0.601932,-1.672411,-3.299808\C,0,1.59304,-1.05
 8114,3.342285\C,0,2.82767,-1.625759,3.039386\C,0,3.298891,-1.688548,1.
 711153\C,0,2.469971,-1.222032,0.670768\N,0,-4.144836,2.100248,1.473347
 \N,0,2.500651,4.119807,-1.498637\N,0,-2.380896,-4.301834,-1.333645\N,0
 ,4.595814,-2.195083,1.447928\C,0,5.637537,-1.996591,2.405529\C,0,-2.18
 2598,-4.974696,-0.091177\C,0,4.935919,-2.791661,0.201383\C,0,-3.437693
 ,-4.746147,-2.175633\C,0,-4.214397,3.09127,0.45774\C,0,-5.312866,1.737
 554,2.198551\C,0,3.638825,4.486481,-2.270935\C,0,2.065927,4.962159,-0.
 441437\C,0,3.777528,5.803528,-2.74671\C,0,4.894065,6.144962,-3.499424\
 C,0,5.881002,5.20453,-3.813338\C,0,5.734616,3.893991,-3.344325\C,0,4.6
 23692,3.541091,-2.567504\C,0,-5.322281,3.1502,-0.392883\C,0,-5.406129,
 4.133821,-1.385696\C,0,-4.369294,5.05797,-1.555248\C,0,-3.258512,4.979
 99,-0.708744\C,0,-3.170289,4.021763,0.294059\C,0,-6.185591,2.724531,2.
 664802\C,0,-7.344237,2.374233,3.368523\C,0,-7.630168,1.030002,3.63478\
 C,0,-6.742674,0.051914,3.174092\C,0,-5.599872,0.383984,2.456864\C,0,3.
 000753,5.624819,0.359674\C,0,2.580462,6.47439,1.390408\C,0,1.217085,6.
 653264,1.648607\C,0,0.290762,5.973454,0.850504\C,0,0.691899,5.143266,-
 0.188979\C,0,-0.986822,-5.644473,0.171486\C,0,-0.775115,-6.303404,1.38
 3742\C,0,-1.784522,-6.305161,2.343205\C,0,-2.991895,-5.6431,2.104354\C
 ,0,-3.195836,-4.964277,0.897865\C,0,-4.261938,-3.816913,-2.835578\C,0,
 -5.299718,-4.264628,-3.654087\C,0,-5.542871,-5.638853,-3.80609\C,0,-4.
 734071,-6.546543,-3.134183\C,0,-3.677962,-6.116561,-2.326922\C,0,4.057
 868,-3.702058,-0.415462\C,0,4.406919,-4.285122,-1.636916\C,0,5.64078,-
 3.993763,-2.237408\C,0,6.50417,-3.102447,-1.612982\C,0,6.161332,-2.489
 251,-0.406927\C,0,5.875395,-0.734089,2.958403\C,0,6.902661,-0.577501,3
 .892322\C,0,7.703498,-1.650401,4.266223\C,0,7.47009,-2.914168,3.702585
 \C,0,6.433475,-3.091235,2.782922\H,0,2.812475,-1.259209,-0.357661\H,0,
 -1.33242,-2.56601,0.425461\H,0,-1.655019,-3.483734,-3.773262\H,0,-0.40
 3356,-1.437711,-4.342704\H,0,0.867916,0.936389,-4.388969\H,0,1.981165,
 3.086395,-3.896254\H,0,1.270213,-1.000671,4.37886\H,0,3.452607,-2.0067
 34,3.839525\H,0,-1.092135,0.286441,4.3985\H,0,-3.196153,1.478264,3.881
 952\H,0,1.544649,2.401276,0.332219\H,0,-2.348825,1.249678,-0.333434\H,
 0,5.887,-4.46568,-3.182822\H,0,-6.35844,-5.959856,-4.445685\H,0,6.7355
 34,5.498007,-4.411288\H,0,-4.412392,5.823408,-2.320773\O,0,6.627095,2.
 884698,-3.573773\H,0,4.544352,2.522135,-2.205499\H,0,-6.135925,2.44032
 7,-0.297587\O,0,-6.539517,4.091826,-2.149577\H,0,4.998233,7.162392,-3.
 867408\H,0,3.012718,6.539244,-2.523329\H,0,-2.45205,5.698291,-0.832015
 \H,0,-2.306057,3.984134,0.948015\H,0,6.833484,-1.778296,0.060012\H,0,7
 .455678,-2.862531,-2.080161\O,0,3.620076,-5.170547,-2.317117\H,0,3.117
 296,-3.935077,0.067414\O,0,-6.147892,-3.436835,-4.335565\H,0,-4.084823
 ,-2.760341,-2.684239\H,0,-4.915529,-7.611974,-3.250261\H,0,-3.04267,-6
 .835308,-1.820738\O,0,-4.320324,-4.2638,0.58995\H,0,0.163032,-6.818441
 ,1.568104\H,0,-0.223196,-5.641875,-0.599912\H,0,5.263844,0.109919,2.65
 8311\H,0,7.089284,0.403456,4.321117\O,0,8.299329,-3.913265,4.126925\H,
 0,6.226817,-4.05927,2.343937\O,0,3.587759,7.069935,2.097652\H,0,4.0645
 98,5.494416,0.197678\H,0,-0.770127,6.112473,1.042797\H,0,-0.042411,4.6
 3438,-0.803554\H,0,-4.930316,-0.38658,2.090626\H,0,-6.963777,-0.994294
 ,3.370323\O,0,-8.121547,3.425397,3.767335\H,0,-5.983317,3.7745,2.48583
 \H,0,-1.640463,-6.819785,3.289272\H,0,-8.518593,0.739174,4.182429\H,0,
 0.871636,7.300343,2.445827\H,0,8.5112,-1.538837,4.982228\C,0,-5.950807
 ,-2.036052,-4.228729\H,0,-4.955615,-1.738758,-4.58487\H,0,-6.079938,-1
 .685857,-3.196062\H,0,-6.713015,-1.577555,-4.861782\H,0,-3.761469,-5.6
 44795,2.867839\C,0,-5.388865,-4.252389,1.522533\H,0,-5.766792,-5.26495
 7,1.714899\H,0,-6.176938,-3.654131,1.062214\H,0,-5.08944,-3.791458,2.4
 7342\C,0,2.316899,-5.431269,-1.823144\C,0,8.126374,-5.209864,3.577786\
 H,0,8.895107,-5.833982,4.037436\H,0,8.262209,-5.209248,2.488292\H,0,7.
 136404,-5.621499,3.815744\H,0,1.856548,-6.113848,-2.540355\H,0,1.71879
 1,-4.513122,-1.758885\H,0,2.347508,-5.913009,-0.835949\C,0,7.796179,3.
 180869,-4.318591\H,0,8.363127,2.249275,-4.368633\H,0,8.405972,3.950259
 ,-3.826203\H,0,7.555039,3.512191,-5.337627\C,0,3.236137,7.914798,3.180
 097\H,0,4.178749,8.267097,3.603584\H,0,2.672869,7.372367,3.951249\H,0,
 2.645357,8.778057,2.845251\C,0,-6.678627,5.04272,-3.191677\C,0,-9.2984
 18,3.146212,4.506628\H,0,-9.753607,4.114891,4.721771\H,0,-9.071908,2.6
 34833,5.451908\H,0,-10.004741,2.535403,3.928485\H,0,-7.636076,4.825801
 ,-3.669407\H,0,-5.87433,4.951231,-3.933927\H,0,-6.693064,6.069984,-2.8
 03535\\Version=EM64L-G09RevA.02\State=1-A\HF=-3948.5193044\RMSD=5.229e
 -09\Dipole=-0.8335117,0.489527,0.7081159\Quadrupole=7.7718086,-0.57915
 87,-7.1926499,-3.9299087,-16.9992423,-14.1924145\PG=C01 [X(C81H68N4O8)
 ]\\@


 THE WISE MAN HAS THE POWER TO REASON AWAY
 WHAT A FOOL BELIEVES.
                     - DOOBIE BROTHERS
 Job cpu time:  0 days 10 hours 47 minutes 32.5 seconds.
 File lengths (MBytes):  RWF=   1440 Int=      0 D2E=      0 Chk=     94 Scr=      1
 Normal termination of Gaussian 09 at Tue Feb  3 20:41:06 2015.
