 Entering Gaussian System, Link 0=g09
 Input=sp_10_B3LYP_cc-pVDZ.com
 Output=sp_10_B3LYP_cc-pVDZ.log
 Initial command:
 /opt/g09/l1.exe /home/jarvist/2014-07_SPIRO/b3lyp-631gs_opt/delta_scf/neutral/Gau-43157.inp -scrdir=/home/jarvist/2014-07_SPIRO/b3lyp-631gs_opt/delta_scf/neutral/
 Default is to use a total of   8 processors:
                                8 via shared-memory
                                1 via Linda
 Entering Link 1 = /opt/g09/l1.exe PID=     43159.
  
 Copyright (c) 1988,1990,1992,1993,1995,1998,2003,2009, Gaussian, Inc.
                  All Rights Reserved.
  
 This is part of the Gaussian(R) 09 program.  It is based on
 the Gaussian(R) 03 system (copyright 2003, Gaussian, Inc.),
 the Gaussian(R) 98 system (copyright 1998, Gaussian, Inc.),
 the Gaussian(R) 94 system (copyright 1995, Gaussian, Inc.),
 the Gaussian 92(TM) system (copyright 1992, Gaussian, Inc.),
 the Gaussian 90(TM) system (copyright 1990, Gaussian, Inc.),
 the Gaussian 88(TM) system (copyright 1988, Gaussian, Inc.),
 the Gaussian 86(TM) system (copyright 1986, Carnegie Mellon
 University), and the Gaussian 82(TM) system (copyright 1983,
 Carnegie Mellon University). Gaussian is a federally registered
 trademark of Gaussian, Inc.
  
 This software contains proprietary and confidential information,
 including trade secrets, belonging to Gaussian, Inc.
  
 This software is provided under written license and may be
 used, copied, transmitted, or stored only in accord with that
 written license.
  
 The following legend is applicable only to US Government
 contracts under FAR:
  
                    RESTRICTED RIGHTS LEGEND
  
 Use, reproduction and disclosure by the US Government is
 subject to restrictions as set forth in subparagraphs (a)
 and (c) of the Commercial Computer Software - Restricted
 Rights clause in FAR 52.227-19.
  
 Gaussian, Inc.
 340 Quinnipiac St., Bldg. 40, Wallingford CT 06492
  
  
 ---------------------------------------------------------------
 Warning -- This program may not be used in any manner that
 competes with the business of Gaussian, Inc. or will provide
 assistance to any competitor of Gaussian, Inc.  The licensee
 of this program is prohibited from giving any competitor of
 Gaussian, Inc. access to this program.  By using this program,
 the user acknowledges that Gaussian, Inc. is engaged in the
 business of creating and licensing software in the field of
 computational chemistry and represents and warrants to the
 licensee that it is not a competitor of Gaussian, Inc. and that
 it will not use this program in any manner prohibited above.
 ---------------------------------------------------------------
  

 Cite this work as:
 Gaussian 09, Revision A.02,
 M. J. Frisch, G. W. Trucks, H. B. Schlegel, G. E. Scuseria, 
 M. A. Robb, J. R. Cheeseman, G. Scalmani, V. Barone, B. Mennucci, 
 G. A. Petersson, H. Nakatsuji, M. Caricato, X. Li, H. P. Hratchian, 
 A. F. Izmaylov, J. Bloino, G. Zheng, J. L. Sonnenberg, M. Hada, 
 M. Ehara, K. Toyota, R. Fukuda, J. Hasegawa, M. Ishida, T. Nakajima, 
 Y. Honda, O. Kitao, H. Nakai, T. Vreven, J. A. Montgomery, Jr., 
 J. E. Peralta, F. Ogliaro, M. Bearpark, J. J. Heyd, E. Brothers, 
 K. N. Kudin, V. N. Staroverov, R. Kobayashi, J. Normand, 
 K. Raghavachari, A. Rendell, J. C. Burant, S. S. Iyengar, J. Tomasi, 
 M. Cossi, N. Rega, J. M. Millam, M. Klene, J. E. Knox, J. B. Cross, 
 V. Bakken, C. Adamo, J. Jaramillo, R. Gomperts, R. E. Stratmann, 
 O. Yazyev, A. J. Austin, R. Cammi, C. Pomelli, J. W. Ochterski, 
 R. L. Martin, K. Morokuma, V. G. Zakrzewski, G. A. Voth, 
 P. Salvador, J. J. Dannenberg, S. Dapprich, A. D. Daniels, 
 O. Farkas, J. B. Foresman, J. V. Ortiz, J. Cioslowski, 
 and D. J. Fox, Gaussian, Inc., Wallingford CT, 2009.
 
 ******************************************
 Gaussian 09:  EM64L-G09RevA.02 11-Jun-2009
                 2-Feb-2015 
 ******************************************
 %mem=16GB
 %nprocs=24
 Will use up to   24 processors via shared memory.
 Default route:  MaxDisk=100GB
 -------------------
 #p sp B3LYP/cc-pVDZ
 -------------------
 1/38=1/1;
 2/12=2,17=6,18=5,40=1/2;
 3/5=16,11=2,16=1,25=1,30=1,74=-5/1,2,3;
 4//1;
 5/5=2,38=5/2;
 6/7=2,8=2,9=2,10=2,28=1/1;
 99/5=1,9=1/99;
 Leave Link    1 at Mon Feb  2 21:28:47 2015, MaxMem= 2147483648 cpu:       2.2
 (Enter /opt/g09/l101.exe)
 ------------------------------------------
 Auto Spiro; and yes I said yes I will Yes.
 ------------------------------------------
 Symbolic Z-matrix:
 Charge =  0 Multiplicity = 1
 C                     0.01867  -0.04083   0.12709 
 C                     0.56793  -1.09579   1.09502 
 C                     0.38175  -0.68647   2.43024 
 C                    -0.28306   0.61786   2.43595 
 C                    -0.50554   1.01929   1.10384 
 C                     1.05761   0.50666  -0.85943 
 C                     0.63193   0.3052   -2.18679 
 C                    -0.67147  -0.36081  -2.16914 
 C                    -1.05     -0.58301  -0.83073 
 C                     2.2673    1.11833  -0.57156 
 C                     3.08367   1.56472  -1.62986 
 C                     2.65692   1.36083  -2.95791 
 C                     1.44687   0.73112  -3.23822 
 C                    -0.69211   1.45174   3.47895 
 C                    -1.30588   2.6691    3.1885 
 C                    -1.53655   3.06639   1.85772 
 C                    -1.12605   2.22134   0.80717 
 C                     1.17752  -2.30044   0.78723 
 C                     1.60982  -3.14393   1.83077 
 C                     1.41826  -2.73577   3.16617 
 C                     0.8177   -1.51516   3.4664 
 C                    -1.5219   -0.77042  -3.19921 
 C                    -2.72314  -1.40176  -2.88754 
 C                    -3.10433  -1.62334  -1.54934 
 C                    -2.25013  -1.19889  -0.51189 
 N                     4.32189   2.20905  -1.37921 
 N                    -2.1656    4.30512   1.55907 
 N                     2.20805  -4.39088   1.52857 
 N                    -4.34131  -2.25344  -1.26513 
 C                    -5.48811  -1.90568  -2.03395 
 C                     1.68357  -5.16981   0.45767 
 C                    -4.49107  -3.12426  -0.15292 
 C                     3.20573  -4.95555   2.36925 
 C                     4.52002   2.98678  -0.2021 
 C                     5.44241   1.91286  -2.20791 
 C                    -3.14671   4.8523    2.43377 
 C                    -1.61815   5.12373   0.52944 
 C                    -3.13973   6.20747   2.77759 
 C                    -4.12301   6.74844   3.60996 
 C                    -5.12518   5.9269    4.13353 
 C                    -5.13398   4.56408   3.80246 
 C                    -4.1676    4.03778   2.95785 
 C                     5.69553   2.8776    0.54605 
 C                     5.91035   3.66949   1.67696 
 C                     4.93008   4.57522   2.09168 
 C                     3.74167   4.68121   1.3543 
 C                     3.54358   3.90756   0.21989 
 C                     6.22492   2.93456  -2.77962 
 C                     7.35589   2.62722  -3.5449 
 C                     7.70759   1.29581  -3.78068 
 C                     6.9194    0.26838  -3.24179 
 C                     5.81649   0.58176  -2.46104 
 C                    -2.43314   5.70466  -0.46078 
 C                    -1.88635   6.54953  -1.43364 
 C                    -0.51315   6.80513  -1.45545 
 C                     0.31455   6.21055  -0.49162 
 C                    -0.23969   5.39552   0.48493 
 C                     0.32952  -5.49423   0.40122 
 C                    -0.21725  -6.23907  -0.64804 
 C                     0.62932  -6.69484  -1.66089 
 C                     1.99954  -6.39278  -1.62535 
 C                     2.5267   -5.62515  -0.58917 
 C                     4.24592  -4.1699    2.88013 
 C                     5.23009  -4.71986   3.70267 
 C                     5.20461  -6.08556   4.00775 
 C                     4.17672  -6.88215   3.48753 
 C                     3.18689  -6.32342   2.68903 
 C                    -3.48545  -4.05209   0.1774 
 C                    -3.64213  -4.91429   1.25239 
 C                    -4.81664  -4.89586   2.01971 
 C                    -5.82691  -3.98773   1.69391 
 C                    -5.65415  -3.10551   0.62318 
 C                    -5.91536  -0.58285  -2.12835 
 C                    -7.02666  -0.20856  -2.88987 
 C                    -7.74755  -1.19954  -3.55864 
 C                    -7.34535  -2.54214  -3.47725 
 C                    -6.21978  -2.89794  -2.73785 
 H                    -2.53736  -1.35347   0.52328 
 H                     1.32408  -2.60274  -0.24476 
 H                     1.73846  -3.39046   3.96962 
 H                     0.67647  -1.22876   4.50576 
 H                    -0.5221    1.17126   4.51548 
 H                    -1.60929   3.32595   3.99676 
 H                    -1.25003  -0.61636  -4.24067 
 H                    -3.38129  -1.73694  -3.68265 
 H                     1.14276   0.58889  -4.27236 
 H                     3.28862   1.70026  -3.77244 
 H                    -1.29459   2.51965  -0.22313 
 H                     2.58882   1.25378   0.45577 
 O                    -4.87248  -5.79904   3.04807 
 C                    -6.02692  -5.79906   3.86801 
 O                     6.12402  -6.7304    4.79318 
 C                     7.18534  -5.96666   5.33646 
 O                    -6.12988   6.34611   4.96451 
 O                     5.02908   5.39425   3.18398 
 C                     6.20994   5.32376   3.96283 
 C                    -6.1614    7.71397   5.33021 
 H                    -5.92029   3.93574   4.20963 
 H                    -4.19383   2.98283   2.70314 
 H                     6.46067   2.1721    0.23847 
 H                    -4.08519   7.80579   3.84665 
 H                    -2.36185   6.85455   2.3854 
 H                     2.99027   5.39283   1.68357 
 H                     2.6216    4.00884  -0.34414 
 H                    -6.4413   -2.39614   0.38794 
 H                    -6.74556  -3.94213   2.26822 
 H                    -2.86697  -5.62928   1.51253 
 H                    -2.57708  -4.09171  -0.41513 
 H                     6.0167   -4.07685   4.08148 
 H                     4.28787  -3.11441   2.63106 
 H                     4.16337  -7.9396    3.73373 
 H                     2.38913  -6.95051   2.30364 
 H                     6.8164   -5.16833   5.99525 
 H                     7.80908  -5.51965   4.55004 
 H                     7.78978  -6.6634    5.92098 
 H                     7.10006   5.58679   3.37488 
 H                     6.35093   4.32429   4.39682 
 H                     6.08343   6.05021   4.7681 
 H                    -7.02799   7.83117   5.98411 
 H                    -6.27917   8.36604   4.4538 
 H                    -5.25476   8.00961   5.87589 
 H                    -6.9336   -6.03479   3.29352 
 H                    -6.16588  -4.83325   4.37292 
 H                    -5.86468  -6.57634   4.61753 
 H                     2.61727  -6.75524  -2.43755 
 O                     3.83478  -5.26334  -0.50113 
 H                    -1.27768  -6.4606   -0.65077 
 H                    -0.31643  -5.13947   1.19898 
 H                    -5.3521    0.17565  -1.59283 
 H                    -7.3171    0.83393  -2.93678 
 H                    -7.92574  -3.27603  -4.0224 
 O                    -5.74772  -4.17012  -2.63829 
 H                    -2.56734   6.97812  -2.15879 
 O                    -3.79737   5.5324   -0.48156 
 H                     1.37951   6.41864  -0.51309 
 H                     0.39857   4.94988   1.24218 
 H                     5.21994  -0.21401  -2.02519 
 H                     7.20218  -0.76251  -3.4286 
 H                     7.92618   3.45725  -3.94385 
 O                     5.96355   4.2665   -2.56063 
 O                     0.23017  -7.44014  -2.73423 
 C                    -1.14707  -7.76069  -2.84621 
 O                     8.78556   0.89892  -4.52051 
 C                     9.61643   1.9019   -5.08081 
 O                     0.11117   7.60636  -2.36916 
 C                    -0.68528   8.23779  -3.35782 
 O                    -8.85788  -0.97581  -4.3235 
 C                    -9.32181   0.35835  -4.45008 
 H                    -1.2458   -8.33789  -3.76768 
 H                    -1.76733  -6.8573   -2.91427 
 H                    -1.49077  -8.36925  -1.99916 
 H                    -10.20199   0.30985  -5.09403 
 H                    -8.56703   1.00613  -4.91551 
 H                    -9.60697   0.78098  -3.47747 
 H                     0.00286   8.82903  -3.96506 
 H                    -1.43558   8.90212  -2.90862 
 H                    -1.19374   7.50373  -3.99723 
 H                     10.40905   1.37238  -5.61296 
 H                     10.06238   2.53766  -4.30432 
 H                     9.06497   2.53493  -5.78894 
 C                    -6.46397  -5.20875  -3.28579 
 C                    -4.24861   4.22153  -0.82696 
 H                     6.83882   3.55975   2.22589 
 C                     4.78804   4.77748  -3.19202 
 C                     4.73446  -5.73009  -1.49326 
 H                     5.71449  -5.34201  -1.21039 
 H                     4.46731  -5.3542   -2.48975 
 H                     4.77077  -6.82691  -1.51921 
 H                    -5.9239   -6.12914  -3.05682 
 H                    -6.49085  -5.06298  -4.37388 
 H                    -7.49137  -5.28647  -2.90716 
 H                    -5.33994   4.26351  -0.80538 
 H                    -3.8991    3.46966  -0.11225 
 H                    -3.91253   3.94836  -1.83647 
 H                     4.86629   4.69248  -4.28462 
 H                     4.72891   5.8316   -2.91287 
 H                     3.88506   4.26076  -2.85156 
 
 NAtoms=    177 NQM=    177 NQMF=      0 NMic=      0 NMicF=      0 NTot=    177.
                    Isotopes and Nuclear Properties:
 (Nuclear quadrupole moments (NQMom) in fm**2, nuclear magnetic moments (NMagM)
  in nuclear magnetons)

  Atom         1           2           3           4           5           6           7           8           9          10
 IAtWgt=          12          12          12          12          12          12          12          12          12          12
 AtmWgt=  12.0000000  12.0000000  12.0000000  12.0000000  12.0000000  12.0000000  12.0000000  12.0000000  12.0000000  12.0000000
 NucSpn=           0           0           0           0           0           0           0           0           0           0
 AtZEff=   0.0000000   0.0000000   0.0000000   0.0000000   0.0000000   0.0000000   0.0000000   0.0000000   0.0000000   0.0000000
 NQMom=    0.0000000   0.0000000   0.0000000   0.0000000   0.0000000   0.0000000   0.0000000   0.0000000   0.0000000   0.0000000
 NMagM=    0.0000000   0.0000000   0.0000000   0.0000000   0.0000000   0.0000000   0.0000000   0.0000000   0.0000000   0.0000000

  Atom        11          12          13          14          15          16          17          18          19          20
 IAtWgt=          12          12          12          12          12          12          12          12          12          12
 AtmWgt=  12.0000000  12.0000000  12.0000000  12.0000000  12.0000000  12.0000000  12.0000000  12.0000000  12.0000000  12.0000000
 NucSpn=           0           0           0           0           0           0           0           0           0           0
 AtZEff=   0.0000000   0.0000000   0.0000000   0.0000000   0.0000000   0.0000000   0.0000000   0.0000000   0.0000000   0.0000000
 NQMom=    0.0000000   0.0000000   0.0000000   0.0000000   0.0000000   0.0000000   0.0000000   0.0000000   0.0000000   0.0000000
 NMagM=    0.0000000   0.0000000   0.0000000   0.0000000   0.0000000   0.0000000   0.0000000   0.0000000   0.0000000   0.0000000

  Atom        21          22          23          24          25          26          27          28          29          30
 IAtWgt=          12          12          12          12          12          14          14          14          14          12
 AtmWgt=  12.0000000  12.0000000  12.0000000  12.0000000  12.0000000  14.0030740  14.0030740  14.0030740  14.0030740  12.0000000
 NucSpn=           0           0           0           0           0           2           2           2           2           0
 AtZEff=   0.0000000   0.0000000   0.0000000   0.0000000   0.0000000   0.0000000   0.0000000   0.0000000   0.0000000   0.0000000
 NQMom=    0.0000000   0.0000000   0.0000000   0.0000000   0.0000000   2.0440000   2.0440000   2.0440000   2.0440000   0.0000000
 NMagM=    0.0000000   0.0000000   0.0000000   0.0000000   0.0000000   0.4037610   0.4037610   0.4037610   0.4037610   0.0000000

  Atom        31          32          33          34          35          36          37          38          39          40
 IAtWgt=          12          12          12          12          12          12          12          12          12          12
 AtmWgt=  12.0000000  12.0000000  12.0000000  12.0000000  12.0000000  12.0000000  12.0000000  12.0000000  12.0000000  12.0000000
 NucSpn=           0           0           0           0           0           0           0           0           0           0
 AtZEff=   0.0000000   0.0000000   0.0000000   0.0000000   0.0000000   0.0000000   0.0000000   0.0000000   0.0000000   0.0000000
 NQMom=    0.0000000   0.0000000   0.0000000   0.0000000   0.0000000   0.0000000   0.0000000   0.0000000   0.0000000   0.0000000
 NMagM=    0.0000000   0.0000000   0.0000000   0.0000000   0.0000000   0.0000000   0.0000000   0.0000000   0.0000000   0.0000000

  Atom        41          42          43          44          45          46          47          48          49          50
 IAtWgt=          12          12          12          12          12          12          12          12          12          12
 AtmWgt=  12.0000000  12.0000000  12.0000000  12.0000000  12.0000000  12.0000000  12.0000000  12.0000000  12.0000000  12.0000000
 NucSpn=           0           0           0           0           0           0           0           0           0           0
 AtZEff=   0.0000000   0.0000000   0.0000000   0.0000000   0.0000000   0.0000000   0.0000000   0.0000000   0.0000000   0.0000000
 NQMom=    0.0000000   0.0000000   0.0000000   0.0000000   0.0000000   0.0000000   0.0000000   0.0000000   0.0000000   0.0000000
 NMagM=    0.0000000   0.0000000   0.0000000   0.0000000   0.0000000   0.0000000   0.0000000   0.0000000   0.0000000   0.0000000

  Atom        51          52          53          54          55          56          57          58          59          60
 IAtWgt=          12          12          12          12          12          12          12          12          12          12
 AtmWgt=  12.0000000  12.0000000  12.0000000  12.0000000  12.0000000  12.0000000  12.0000000  12.0000000  12.0000000  12.0000000
 NucSpn=           0           0           0           0           0           0           0           0           0           0
 AtZEff=   0.0000000   0.0000000   0.0000000   0.0000000   0.0000000   0.0000000   0.0000000   0.0000000   0.0000000   0.0000000
 NQMom=    0.0000000   0.0000000   0.0000000   0.0000000   0.0000000   0.0000000   0.0000000   0.0000000   0.0000000   0.0000000
 NMagM=    0.0000000   0.0000000   0.0000000   0.0000000   0.0000000   0.0000000   0.0000000   0.0000000   0.0000000   0.0000000

  Atom        61          62          63          64          65          66          67          68          69          70
 IAtWgt=          12          12          12          12          12          12          12          12          12          12
 AtmWgt=  12.0000000  12.0000000  12.0000000  12.0000000  12.0000000  12.0000000  12.0000000  12.0000000  12.0000000  12.0000000
 NucSpn=           0           0           0           0           0           0           0           0           0           0
 AtZEff=   0.0000000   0.0000000   0.0000000   0.0000000   0.0000000   0.0000000   0.0000000   0.0000000   0.0000000   0.0000000
 NQMom=    0.0000000   0.0000000   0.0000000   0.0000000   0.0000000   0.0000000   0.0000000   0.0000000   0.0000000   0.0000000
 NMagM=    0.0000000   0.0000000   0.0000000   0.0000000   0.0000000   0.0000000   0.0000000   0.0000000   0.0000000   0.0000000

  Atom        71          72          73          74          75          76          77          78          79          80
 IAtWgt=          12          12          12          12          12          12          12           1           1           1
 AtmWgt=  12.0000000  12.0000000  12.0000000  12.0000000  12.0000000  12.0000000  12.0000000   1.0078250   1.0078250   1.0078250
 NucSpn=           0           0           0           0           0           0           0           1           1           1
 AtZEff=   0.0000000   0.0000000   0.0000000   0.0000000   0.0000000   0.0000000   0.0000000   0.0000000   0.0000000   0.0000000
 NQMom=    0.0000000   0.0000000   0.0000000   0.0000000   0.0000000   0.0000000   0.0000000   0.0000000   0.0000000   0.0000000
 NMagM=    0.0000000   0.0000000   0.0000000   0.0000000   0.0000000   0.0000000   0.0000000   2.7928460   2.7928460   2.7928460

  Atom        81          82          83          84          85          86          87          88          89          90
 IAtWgt=           1           1           1           1           1           1           1           1           1          16
 AtmWgt=   1.0078250   1.0078250   1.0078250   1.0078250   1.0078250   1.0078250   1.0078250   1.0078250   1.0078250  15.9949146
 NucSpn=           1           1           1           1           1           1           1           1           1           0
 AtZEff=   0.0000000   0.0000000   0.0000000   0.0000000   0.0000000   0.0000000   0.0000000   0.0000000   0.0000000   0.0000000
 NQMom=    0.0000000   0.0000000   0.0000000   0.0000000   0.0000000   0.0000000   0.0000000   0.0000000   0.0000000   0.0000000
 NMagM=    2.7928460   2.7928460   2.7928460   2.7928460   2.7928460   2.7928460   2.7928460   2.7928460   2.7928460   0.0000000

  Atom        91          92          93          94          95          96          97          98          99         100
 IAtWgt=          12          16          12          16          16          12          12           1           1           1
 AtmWgt=  12.0000000  15.9949146  12.0000000  15.9949146  15.9949146  12.0000000  12.0000000   1.0078250   1.0078250   1.0078250
 NucSpn=           0           0           0           0           0           0           0           1           1           1
 AtZEff=   0.0000000   0.0000000   0.0000000   0.0000000   0.0000000   0.0000000   0.0000000   0.0000000   0.0000000   0.0000000
 NQMom=    0.0000000   0.0000000   0.0000000   0.0000000   0.0000000   0.0000000   0.0000000   0.0000000   0.0000000   0.0000000
 NMagM=    0.0000000   0.0000000   0.0000000   0.0000000   0.0000000   0.0000000   0.0000000   2.7928460   2.7928460   2.7928460

  Atom       101         102         103         104         105         106         107         108         109         110
 IAtWgt=           1           1           1           1           1           1           1           1           1           1
 AtmWgt=   1.0078250   1.0078250   1.0078250   1.0078250   1.0078250   1.0078250   1.0078250   1.0078250   1.0078250   1.0078250
 NucSpn=           1           1           1           1           1           1           1           1           1           1
 AtZEff=   0.0000000   0.0000000   0.0000000   0.0000000   0.0000000   0.0000000   0.0000000   0.0000000   0.0000000   0.0000000
 NQMom=    0.0000000   0.0000000   0.0000000   0.0000000   0.0000000   0.0000000   0.0000000   0.0000000   0.0000000   0.0000000
 NMagM=    2.7928460   2.7928460   2.7928460   2.7928460   2.7928460   2.7928460   2.7928460   2.7928460   2.7928460   2.7928460

  Atom       111         112         113         114         115         116         117         118         119         120
 IAtWgt=           1           1           1           1           1           1           1           1           1           1
 AtmWgt=   1.0078250   1.0078250   1.0078250   1.0078250   1.0078250   1.0078250   1.0078250   1.0078250   1.0078250   1.0078250
 NucSpn=           1           1           1           1           1           1           1           1           1           1
 AtZEff=   0.0000000   0.0000000   0.0000000   0.0000000   0.0000000   0.0000000   0.0000000   0.0000000   0.0000000   0.0000000
 NQMom=    0.0000000   0.0000000   0.0000000   0.0000000   0.0000000   0.0000000   0.0000000   0.0000000   0.0000000   0.0000000
 NMagM=    2.7928460   2.7928460   2.7928460   2.7928460   2.7928460   2.7928460   2.7928460   2.7928460   2.7928460   2.7928460

  Atom       121         122         123         124         125         126         127         128         129         130
 IAtWgt=           1           1           1           1           1          16           1           1           1           1
 AtmWgt=   1.0078250   1.0078250   1.0078250   1.0078250   1.0078250  15.9949146   1.0078250   1.0078250   1.0078250   1.0078250
 NucSpn=           1           1           1           1           1           0           1           1           1           1
 AtZEff=   0.0000000   0.0000000   0.0000000   0.0000000   0.0000000   0.0000000   0.0000000   0.0000000   0.0000000   0.0000000
 NQMom=    0.0000000   0.0000000   0.0000000   0.0000000   0.0000000   0.0000000   0.0000000   0.0000000   0.0000000   0.0000000
 NMagM=    2.7928460   2.7928460   2.7928460   2.7928460   2.7928460   0.0000000   2.7928460   2.7928460   2.7928460   2.7928460

  Atom       131         132         133         134         135         136         137         138         139         140
 IAtWgt=           1          16           1          16           1           1           1           1           1          16
 AtmWgt=   1.0078250  15.9949146   1.0078250  15.9949146   1.0078250   1.0078250   1.0078250   1.0078250   1.0078250  15.9949146
 NucSpn=           1           0           1           0           1           1           1           1           1           0
 AtZEff=   0.0000000   0.0000000   0.0000000   0.0000000   0.0000000   0.0000000   0.0000000   0.0000000   0.0000000   0.0000000
 NQMom=    0.0000000   0.0000000   0.0000000   0.0000000   0.0000000   0.0000000   0.0000000   0.0000000   0.0000000   0.0000000
 NMagM=    2.7928460   0.0000000   2.7928460   0.0000000   2.7928460   2.7928460   2.7928460   2.7928460   2.7928460   0.0000000

  Atom       141         142         143         144         145         146         147         148         149         150
 IAtWgt=          16          12          16          12          16          12          16          12           1           1
 AtmWgt=  15.9949146  12.0000000  15.9949146  12.0000000  15.9949146  12.0000000  15.9949146  12.0000000   1.0078250   1.0078250
 NucSpn=           0           0           0           0           0           0           0           0           1           1
 AtZEff=   0.0000000   0.0000000   0.0000000   0.0000000   0.0000000   0.0000000   0.0000000   0.0000000   0.0000000   0.0000000
 NQMom=    0.0000000   0.0000000   0.0000000   0.0000000   0.0000000   0.0000000   0.0000000   0.0000000   0.0000000   0.0000000
 NMagM=    0.0000000   0.0000000   0.0000000   0.0000000   0.0000000   0.0000000   0.0000000   0.0000000   2.7928460   2.7928460

  Atom       151         152         153         154         155         156         157         158         159         160
 IAtWgt=           1           1           1           1           1           1           1           1           1           1
 AtmWgt=   1.0078250   1.0078250   1.0078250   1.0078250   1.0078250   1.0078250   1.0078250   1.0078250   1.0078250   1.0078250
 NucSpn=           1           1           1           1           1           1           1           1           1           1
 AtZEff=   0.0000000   0.0000000   0.0000000   0.0000000   0.0000000   0.0000000   0.0000000   0.0000000   0.0000000   0.0000000
 NQMom=    0.0000000   0.0000000   0.0000000   0.0000000   0.0000000   0.0000000   0.0000000   0.0000000   0.0000000   0.0000000
 NMagM=    2.7928460   2.7928460   2.7928460   2.7928460   2.7928460   2.7928460   2.7928460   2.7928460   2.7928460   2.7928460

  Atom       161         162         163         164         165         166         167         168         169         170
 IAtWgt=          12          12           1          12          12           1           1           1           1           1
 AtmWgt=  12.0000000  12.0000000   1.0078250  12.0000000  12.0000000   1.0078250   1.0078250   1.0078250   1.0078250   1.0078250
 NucSpn=           0           0           1           0           0           1           1           1           1           1
 AtZEff=   0.0000000   0.0000000   0.0000000   0.0000000   0.0000000   0.0000000   0.0000000   0.0000000   0.0000000   0.0000000
 NQMom=    0.0000000   0.0000000   0.0000000   0.0000000   0.0000000   0.0000000   0.0000000   0.0000000   0.0000000   0.0000000
 NMagM=    0.0000000   0.0000000   2.7928460   0.0000000   0.0000000   2.7928460   2.7928460   2.7928460   2.7928460   2.7928460

  Atom       171         172         173         174         175         176         177
 IAtWgt=           1           1           1           1           1           1           1
 AtmWgt=   1.0078250   1.0078250   1.0078250   1.0078250   1.0078250   1.0078250   1.0078250
 NucSpn=           1           1           1           1           1           1           1
 AtZEff=   0.0000000   0.0000000   0.0000000   0.0000000   0.0000000   0.0000000   0.0000000
 NQMom=    0.0000000   0.0000000   0.0000000   0.0000000   0.0000000   0.0000000   0.0000000
 NMagM=    2.7928460   2.7928460   2.7928460   2.7928460   2.7928460   2.7928460   2.7928460
 Leave Link  101 at Mon Feb  2 21:28:47 2015, MaxMem= 2147483648 cpu:       4.1
 (Enter /opt/g09/l202.exe)
 Stoichiometry    C85H76N4O12
 Framework group  C1[X(C85H76N4O12)]
 Deg. of freedom   525
 Full point group                 C1      NOp   1
 Largest Abelian subgroup         C1      NOp   1
 Largest concise Abelian subgroup C1      NOp   1
                         Standard orientation:                         
 ---------------------------------------------------------------------
 Center     Atomic      Atomic             Coordinates (Angstroms)
 Number     Number       Type             X           Y           Z
 ---------------------------------------------------------------------
      1          6           0        0.018671   -0.040829    0.127087
      2          6           0        0.567933   -1.095786    1.095021
      3          6           0        0.381753   -0.686472    2.430244
      4          6           0       -0.283059    0.617860    2.435947
      5          6           0       -0.505540    1.019291    1.103837
      6          6           0        1.057614    0.506655   -0.859427
      7          6           0        0.631934    0.305198   -2.186787
      8          6           0       -0.671467   -0.360807   -2.169140
      9          6           0       -1.049998   -0.583014   -0.830734
     10          6           0        2.267295    1.118325   -0.571558
     11          6           0        3.083668    1.564717   -1.629862
     12          6           0        2.656915    1.360832   -2.957910
     13          6           0        1.446865    0.731122   -3.238215
     14          6           0       -0.692107    1.451741    3.478945
     15          6           0       -1.305880    2.669103    3.188501
     16          6           0       -1.536547    3.066395    1.857722
     17          6           0       -1.126049    2.221344    0.807172
     18          6           0        1.177516   -2.300436    0.787225
     19          6           0        1.609817   -3.143935    1.830767
     20          6           0        1.418262   -2.735771    3.166174
     21          6           0        0.817698   -1.515163    3.466405
     22          6           0       -1.521897   -0.770423   -3.199212
     23          6           0       -2.723140   -1.401755   -2.887536
     24          6           0       -3.104331   -1.623339   -1.549341
     25          6           0       -2.250132   -1.198891   -0.511890
     26          7           0        4.321891    2.209053   -1.379210
     27          7           0       -2.165596    4.305122    1.559073
     28          7           0        2.208054   -4.390875    1.528574
     29          7           0       -4.341305   -2.253435   -1.265127
     30          6           0       -5.488106   -1.905679   -2.033945
     31          6           0        1.683569   -5.169813    0.457672
     32          6           0       -4.491068   -3.124264   -0.152919
     33          6           0        3.205732   -4.955549    2.369252
     34          6           0        4.520020    2.986779   -0.202098
     35          6           0        5.442413    1.912856   -2.207910
     36          6           0       -3.146707    4.852298    2.433772
     37          6           0       -1.618145    5.123731    0.529440
     38          6           0       -3.139730    6.207472    2.777589
     39          6           0       -4.123009    6.748435    3.609961
     40          6           0       -5.125177    5.926897    4.133534
     41          6           0       -5.133979    4.564079    3.802461
     42          6           0       -4.167601    4.037776    2.957851
     43          6           0        5.695531    2.877598    0.546052
     44          6           0        5.910354    3.669486    1.676962
     45          6           0        4.930084    4.575221    2.091680
     46          6           0        3.741672    4.681211    1.354299
     47          6           0        3.543580    3.907555    0.219891
     48          6           0        6.224920    2.934564   -2.779616
     49          6           0        7.355891    2.627222   -3.544899
     50          6           0        7.707589    1.295810   -3.780681
     51          6           0        6.919404    0.268377   -3.241794
     52          6           0        5.816492    0.581756   -2.461037
     53          6           0       -2.433144    5.704659   -0.460782
     54          6           0       -1.886348    6.549529   -1.433635
     55          6           0       -0.513145    6.805132   -1.455446
     56          6           0        0.314549    6.210550   -0.491621
     57          6           0       -0.239685    5.395524    0.484932
     58          6           0        0.329523   -5.494231    0.401222
     59          6           0       -0.217245   -6.239075   -0.648042
     60          6           0        0.629316   -6.694840   -1.660888
     61          6           0        1.999543   -6.392780   -1.625354
     62          6           0        2.526702   -5.625146   -0.589170
     63          6           0        4.245921   -4.169895    2.880133
     64          6           0        5.230088   -4.719861    3.702669
     65          6           0        5.204607   -6.085563    4.007752
     66          6           0        4.176721   -6.882153    3.487532
     67          6           0        3.186892   -6.323421    2.689034
     68          6           0       -3.485452   -4.052088    0.177395
     69          6           0       -3.642128   -4.914292    1.252385
     70          6           0       -4.816642   -4.895855    2.019705
     71          6           0       -5.826913   -3.987732    1.693911
     72          6           0       -5.654154   -3.105507    0.623182
     73          6           0       -5.915363   -0.582852   -2.128355
     74          6           0       -7.026660   -0.208561   -2.889871
     75          6           0       -7.747549   -1.199535   -3.558642
     76          6           0       -7.345353   -2.542143   -3.477248
     77          6           0       -6.219784   -2.897935   -2.737853
     78          1           0       -2.537358   -1.353474    0.523281
     79          1           0        1.324077   -2.602741   -0.244759
     80          1           0        1.738455   -3.390455    3.969618
     81          1           0        0.676473   -1.228759    4.505758
     82          1           0       -0.522103    1.171259    4.515483
     83          1           0       -1.609291    3.325948    3.996762
     84          1           0       -1.250034   -0.616355   -4.240674
     85          1           0       -3.381286   -1.736944   -3.682654
     86          1           0        1.142756    0.588888   -4.272362
     87          1           0        3.288624    1.700260   -3.772436
     88          1           0       -1.294590    2.519649   -0.223128
     89          1           0        2.588815    1.253783    0.455766
     90          8           0       -4.872482   -5.799036    3.048070
     91          6           0       -6.026922   -5.799055    3.868008
     92          8           0        6.124025   -6.730398    4.793175
     93          6           0        7.185344   -5.966664    5.336464
     94          8           0       -6.129882    6.346108    4.964510
     95          8           0        5.029078    5.394254    3.183977
     96          6           0        6.209939    5.323756    3.962825
     97          6           0       -6.161399    7.713972    5.330206
     98          1           0       -5.920294    3.935737    4.209628
     99          1           0       -4.193828    2.982834    2.703143
    100          1           0        6.460673    2.172097    0.238474
    101          1           0       -4.085186    7.805790    3.846647
    102          1           0       -2.361854    6.854554    2.385404
    103          1           0        2.990272    5.392829    1.683565
    104          1           0        2.621600    4.008839   -0.344143
    105          1           0       -6.441301   -2.396137    0.387943
    106          1           0       -6.745563   -3.942129    2.268220
    107          1           0       -2.866965   -5.629276    1.512530
    108          1           0       -2.577079   -4.091712   -0.415125
    109          1           0        6.016698   -4.076848    4.081484
    110          1           0        4.287871   -3.114409    2.631058
    111          1           0        4.163370   -7.939603    3.733732
    112          1           0        2.389128   -6.950507    2.303639
    113          1           0        6.816400   -5.168330    5.995249
    114          1           0        7.809082   -5.519646    4.550036
    115          1           0        7.789781   -6.663401    5.920978
    116          1           0        7.100057    5.586786    3.374876
    117          1           0        6.350927    4.324294    4.396818
    118          1           0        6.083427    6.050215    4.768099
    119          1           0       -7.027987    7.831173    5.984111
    120          1           0       -6.279172    8.366042    4.453800
    121          1           0       -5.254760    8.009608    5.875887
    122          1           0       -6.933602   -6.034788    3.293521
    123          1           0       -6.165880   -4.833252    4.372922
    124          1           0       -5.864679   -6.576338    4.617529
    125          1           0        2.617266   -6.755235   -2.437551
    126          8           0        3.834778   -5.263337   -0.501132
    127          1           0       -1.277682   -6.460596   -0.650771
    128          1           0       -0.316433   -5.139468    1.198977
    129          1           0       -5.352095    0.175653   -1.592831
    130          1           0       -7.317096    0.833931   -2.936780
    131          1           0       -7.925737   -3.276034   -4.022400
    132          8           0       -5.747724   -4.170117   -2.638291
    133          1           0       -2.567338    6.978117   -2.158791
    134          8           0       -3.797370    5.532396   -0.481557
    135          1           0        1.379509    6.418644   -0.513086
    136          1           0        0.398572    4.949879    1.242175
    137          1           0        5.219937   -0.214010   -2.025186
    138          1           0        7.202182   -0.762513   -3.428600
    139          1           0        7.926175    3.457255   -3.943845
    140          8           0        5.963551    4.266504   -2.560628
    141          8           0        0.230172   -7.440141   -2.734226
    142          6           0       -1.147073   -7.760690   -2.846208
    143          8           0        8.785564    0.898921   -4.520513
    144          6           0        9.616434    1.901897   -5.080811
    145          8           0        0.111167    7.606364   -2.369160
    146          6           0       -0.685280    8.237791   -3.357816
    147          8           0       -8.857882   -0.975808   -4.323503
    148          6           0       -9.321814    0.358344   -4.450077
    149          1           0       -1.245794   -8.337891   -3.767683
    150          1           0       -1.767330   -6.857298   -2.914269
    151          1           0       -1.490765   -8.369253   -1.999155
    152          1           0      -10.201994    0.309850   -5.094027
    153          1           0       -8.567025    1.006126   -4.915514
    154          1           0       -9.606965    0.780975   -3.477472
    155          1           0        0.002860    8.829026   -3.965055
    156          1           0       -1.435576    8.902123   -2.908616
    157          1           0       -1.193743    7.503730   -3.997228
    158          1           0       10.409047    1.372381   -5.612958
    159          1           0       10.062379    2.537659   -4.304324
    160          1           0        9.064968    2.534930   -5.788942
    161          6           0       -6.463969   -5.208745   -3.285791
    162          6           0       -4.248610    4.221527   -0.826962
    163          1           0        6.838817    3.559754    2.225886
    164          6           0        4.788037    4.777477   -3.192016
    165          6           0        4.734458   -5.730092   -1.493255
    166          1           0        5.714487   -5.342006   -1.210393
    167          1           0        4.467313   -5.354201   -2.489754
    168          1           0        4.770771   -6.826910   -1.519214
    169          1           0       -5.923899   -6.129137   -3.056824
    170          1           0       -6.490852   -5.062976   -4.373877
    171          1           0       -7.491365   -5.286473   -2.907155
    172          1           0       -5.339942    4.263513   -0.805384
    173          1           0       -3.899104    3.469656   -0.112248
    174          1           0       -3.912531    3.948363   -1.836472
    175          1           0        4.866285    4.692478   -4.284623
    176          1           0        4.728907    5.831601   -2.912867
    177          1           0        3.885057    4.260764   -2.851560
 ---------------------------------------------------------------------
 Rotational constants (GHZ):      0.0140334      0.0134687      0.0094078
 Leave Link  202 at Mon Feb  2 21:28:47 2015, MaxMem= 2147483648 cpu:       0.1
 (Enter /opt/g09/l301.exe)
 Standard basis: CC-pVDZ (5D, 7F)
 Ernie: Thresh=  0.10000D-02 Tol=  0.10000D-05 Strict=F.
 Ernie:  202 primitive shells out of 2602 were deleted.
 There are  1794 symmetry adapted basis functions of A   symmetry.
 Integral buffers will be    131072 words long.
 Raffenetti 2 integral format.
 Two-electron integral symmetry is turned on.
  1794 basis functions,  3865 primitive gaussians,  1895 cartesian basis functions
   355 alpha electrons      355 beta electrons
       nuclear repulsion energy     19252.8673223999 Hartrees.
 IExCor=  402 DFT=T Ex+Corr=B3LYP ExCW=0 ScaHFX=  0.200000
 ScaDFX=  0.800000  0.720000  1.000000  0.810000 ScalE2=  1.000000  1.000000
 IRadAn=      0 IRanWt=     -1 IRanGd=            0 ICorTp=0
 NAtoms=  177 NActive=  177 NUniq=  177 SFac= 7.50D-01 NAtFMM=   80 NAOKFM=T Big=T
 Leave Link  301 at Mon Feb  2 21:28:47 2015, MaxMem= 2147483648 cpu:       1.4
 (Enter /opt/g09/l302.exe)
 NPDir=0 NMtPBC=     1 NCelOv=     1 NCel=       1 NClECP=     1 NCelD=      1
         NCelK=      1 NCelE2=     1 NClLst=     1 CellRange=     0.0.
 One-electron integrals computed using PRISM.
 NBasis=  1794 RedAO= T  NBF=  1794
 NBsUse=  1794 1.00D-06 NBFU=  1794
 Precomputing XC quadrature grid using
 IXCGrd= 2 IRadAn=           0 IRanWt=          -1 IRanGd=           0 AccXCQ= 1.00D-10.
 NRdTot=   11607 NPtTot=     1487580 NUsed=     1571143 NTot=     1571175
 NSgBfM=  1284  1290  1290  1294  1311 NAtAll=   177   169.
 Leave Link  302 at Mon Feb  2 21:29:13 2015, MaxMem= 2147483648 cpu:     625.9
 (Enter /opt/g09/l303.exe)
 DipDrv:  MaxL=1.
 Leave Link  303 at Mon Feb  2 21:29:15 2015, MaxMem= 2147483648 cpu:      45.7
 (Enter /opt/g09/l401.exe)
 Harris functional with IExCor=  402 diagonalized for initial guess.
 ExpMin= 1.22D-01 ExpMax= 1.17D+04 ExpMxC= 4.01D+02 IAcc=1 IRadAn=         1 AccDes= 0.00D+00
 HarFok:  IExCor=  402 AccDes= 0.00D+00 IRadAn=         1 IDoV= 1
 ScaDFX=  1.000000  1.000000  1.000000  1.000000
 FoFCou: FMM=F IPFlag=           0 FMFlag=      100000 FMFlg1=        2001
         NFxFlg=           0 DoJE=T BraDBF=F KetDBF=T FulRan=T
         Omega=  0.000000  0.000000  1.000000  0.000000  0.000000 ICntrl=     500 IOpCl=  0
         NMat0=    1 NMatS0=    1 NMatT0=    0 NMatD0=    1 NMtDS0=    0 NMtDT0=    0
         I1Cent=           4 NGrid=           0.
 Petite list used in FoFCou.
 Harris En= -4406.74818470423    
 Initial guess orbital symmetries:
       Occupied  (A) (A) (A) (A) (A) (A) (A) (A) (A) (A) (A) (A)
                 (A) (A) (A) (A) (A) (A) (A) (A) (A) (A) (A) (A)
                 (A) (A) (A) (A) (A) (A) (A) (A) (A) (A) (A) (A)
                 (A) (A) (A) (A) (A) (A) (A) (A) (A) (A) (A) (A)
                 (A) (A) (A) (A) (A) (A) (A) (A) (A) (A) (A) (A)
                 (A) (A) (A) (A) (A) (A) (A) (A) (A) (A) (A) (A)
                 (A) (A) (A) (A) (A) (A) (A) (A) (A) (A) (A) (A)
                 (A) (A) (A) (A) (A) (A) (A) (A) (A) (A) (A) (A)
                 (A) (A) (A) (A) (A) (A) (A) (A) (A) (A) (A) (A)
                 (A) (A) (A) (A) (A) (A) (A) (A) (A) (A) (A) (A)
                 (A) (A) (A) (A) (A) (A) (A) (A) (A) (A) (A) (A)
                 (A) (A) (A) (A) (A) (A) (A) (A) (A) (A) (A) (A)
                 (A) (A) (A) (A) (A) (A) (A) (A) (A) (A) (A) (A)
                 (A) (A) (A) (A) (A) (A) (A) (A) (A) (A) (A) (A)
                 (A) (A) (A) (A) (A) (A) (A) (A) (A) (A) (A) (A)
                 (A) (A) (A) (A) (A) (A) (A) (A) (A) (A) (A) (A)
                 (A) (A) (A) (A) (A) (A) (A) (A) (A) (A) (A) (A)
                 (A) (A) (A) (A) (A) (A) (A) (A) (A) (A) (A) (A)
                 (A) (A) (A) (A) (A) (A) (A) (A) (A) (A) (A) (A)
                 (A) (A) (A) (A) (A) (A) (A) (A) (A) (A) (A) (A)
                 (A) (A) (A) (A) (A) (A) (A) (A) (A) (A) (A) (A)
                 (A) (A) (A) (A) (A) (A) (A) (A) (A) (A) (A) (A)
                 (A) (A) (A) (A) (A) (A) (A) (A) (A) (A) (A) (A)
                 (A) (A) (A) (A) (A) (A) (A) (A) (A) (A) (A) (A)
                 (A) (A) (A) (A) (A) (A) (A) (A) (A) (A) (A) (A)
                 (A) (A) (A) (A) (A) (A) (A) (A) (A) (A) (A) (A)
                 (A) (A) (A) (A) (A) (A) (A) (A) (A) (A) (A) (A)
                 (A) (A) (A) (A) (A) (A) (A) (A) (A) (A) (A) (A)
                 (A) (A) (A) (A) (A) (A) (A) (A) (A) (A) (A) (A)
                 (A) (A) (A) (A) (A) (A) (A)
       Virtual   (A) (A) (A) (A) (A) (A) (A) (A) (A) (A) (A) (A)
                 (A) (A) (A) (A) (A) (A) (A) (A) (A) (A) (A) (A)
                 (A) (A) (A) (A) (A) (A) (A) (A) (A) (A) (A) (A)
                 (A) (A) (A) (A) (A) (A) (A) (A) (A) (A) (A) (A)
                 (A) (A) (A) (A) (A) (A) (A) (A) (A) (A) (A) (A)
                 (A) (A) (A) (A) (A) (A) (A) (A) (A) (A) (A) (A)
                 (A) (A) (A) (A) (A) (A) (A) (A) (A) (A) (A) (A)
                 (A) (A) (A) (A) (A) (A) (A) (A) (A) (A) (A) (A)
                 (A) (A) (A) (A) (A) (A) (A) (A) (A) (A) (A) (A)
                 (A) (A) (A) (A) (A) (A) (A) (A) (A) (A) (A) (A)
                 (A) (A) (A) (A) (A) (A) (A) (A) (A) (A) (A) (A)
                 (A) (A) (A) (A) (A) (A) (A) (A) (A) (A) (A) (A)
                 (A) (A) (A) (A) (A) (A) (A) (A) (A) (A) (A) (A)
                 (A) (A) (A) (A) (A) (A) (A) (A) (A) (A) (A) (A)
                 (A) (A) (A) (A) (A) (A) (A) (A) (A) (A) (A) (A)
                 (A) (A) (A) (A) (A) (A) (A) (A) (A) (A) (A) (A)
                 (A) (A) (A) (A) (A) (A) (A) (A) (A) (A) (A) (A)
                 (A) (A) (A) (A) (A) (A) (A) (A) (A) (A) (A) (A)
                 (A) (A) (A) (A) (A) (A) (A) (A) (A) (A) (A) (A)
                 (A) (A) (A) (A) (A) (A) (A) (A) (A) (A) (A) (A)
                 (A) (A) (A) (A) (A) (A) (A) (A) (A) (A) (A) (A)
                 (A) (A) (A) (A) (A) (A) (A) (A) (A) (A) (A) (A)
                 (A) (A) (A) (A) (A) (A) (A) (A) (A) (A) (A) (A)
                 (A) (A) (A) (A) (A) (A) (A) (A) (A) (A) (A) (A)
                 (A) (A) (A) (A) (A) (A) (A) (A) (A) (A) (A) (A)
                 (A) (A) (A) (A) (A) (A) (A) (A) (A) (A) (A) (A)
                 (A) (A) (A) (A) (A) (A) (A) (A) (A) (A) (A) (A)
                 (A) (A) (A) (A) (A) (A) (A) (A) (A) (A) (A) (A)
                 (A) (A) (A) (A) (A) (A) (A) (A) (A) (A) (A) (A)
                 (A) (A) (A) (A) (A) (A) (A) (A) (A) (A) (A) (A)
                 (A) (A) (A) (A) (A) (A) (A) (A) (A) (A) (A) (A)
                 (A) (A) (A) (A) (A) (A) (A) (A) (A) (A) (A) (A)
                 (A) (A) (A) (A) (A) (A) (A) (A) (A) (A) (A) (A)
                 (A) (A) (A) (A) (A) (A) (A) (A) (A) (A) (A) (A)
                 (A) (A) (A) (A) (A) (A) (A) (A) (A) (A) (A) (A)
                 (A) (A) (A) (A) (A) (A) (A) (A) (A) (A) (A) (A)
                 (A) (A) (A) (A) (A) (A) (A) (A) (A) (A) (A) (A)
                 (A) (A) (A) (A) (A) (A) (A) (A) (A) (A) (A) (A)
                 (A) (A) (A) (A) (A) (A) (A) (A) (A) (A) (A) (A)
                 (A) (A) (A) (A) (A) (A) (A) (A) (A) (A) (A) (A)
                 (A) (A) (A) (A) (A) (A) (A) (A) (A) (A) (A) (A)
                 (A) (A) (A) (A) (A) (A) (A) (A) (A) (A) (A) (A)
                 (A) (A) (A) (A) (A) (A) (A) (A) (A) (A) (A) (A)
                 (A) (A) (A) (A) (A) (A) (A) (A) (A) (A) (A) (A)
                 (A) (A) (A) (A) (A) (A) (A) (A) (A) (A) (A) (A)
                 (A) (A) (A) (A) (A) (A) (A) (A) (A) (A) (A) (A)
                 (A) (A) (A) (A) (A) (A) (A) (A) (A) (A) (A) (A)
                 (A) (A) (A) (A) (A) (A) (A) (A) (A) (A) (A) (A)
                 (A) (A) (A) (A) (A) (A) (A) (A) (A) (A) (A) (A)
                 (A) (A) (A) (A) (A) (A) (A) (A) (A) (A) (A) (A)
                 (A) (A) (A) (A) (A) (A) (A) (A) (A) (A) (A) (A)
                 (A) (A) (A) (A) (A) (A) (A) (A) (A) (A) (A) (A)
                 (A) (A) (A) (A) (A) (A) (A) (A) (A) (A) (A) (A)
                 (A) (A) (A) (A) (A) (A) (A) (A) (A) (A) (A) (A)
                 (A) (A) (A) (A) (A) (A) (A) (A) (A) (A) (A) (A)
                 (A) (A) (A) (A) (A) (A) (A) (A) (A) (A) (A) (A)
                 (A) (A) (A) (A) (A) (A) (A) (A) (A) (A) (A) (A)
                 (A) (A) (A) (A) (A) (A) (A) (A) (A) (A) (A) (A)
                 (A) (A) (A) (A) (A) (A) (A) (A) (A) (A) (A) (A)
                 (A) (A) (A) (A) (A) (A) (A) (A) (A) (A) (A) (A)
                 (A) (A) (A) (A) (A) (A) (A) (A) (A) (A) (A) (A)
                 (A) (A) (A) (A) (A) (A) (A) (A) (A) (A) (A) (A)
                 (A) (A) (A) (A) (A) (A) (A) (A) (A) (A) (A) (A)
                 (A) (A) (A) (A) (A) (A) (A) (A) (A) (A) (A) (A)
                 (A) (A) (A) (A) (A) (A) (A) (A) (A) (A) (A) (A)
                 (A) (A) (A) (A) (A) (A) (A) (A) (A) (A) (A) (A)
                 (A) (A) (A) (A) (A) (A) (A) (A) (A) (A) (A) (A)
                 (A) (A) (A) (A) (A) (A) (A) (A) (A) (A) (A) (A)
                 (A) (A) (A) (A) (A) (A) (A) (A) (A) (A) (A) (A)
                 (A) (A) (A) (A) (A) (A) (A) (A) (A) (A) (A) (A)
                 (A) (A) (A) (A) (A) (A) (A) (A) (A) (A) (A) (A)
                 (A) (A) (A) (A) (A) (A) (A) (A) (A) (A) (A) (A)
                 (A) (A) (A) (A) (A) (A) (A) (A) (A) (A) (A) (A)
                 (A) (A) (A) (A) (A) (A) (A) (A) (A) (A) (A) (A)
                 (A) (A) (A) (A) (A) (A) (A) (A) (A) (A) (A) (A)
                 (A) (A) (A) (A) (A) (A) (A) (A) (A) (A) (A) (A)
                 (A) (A) (A) (A) (A) (A) (A) (A) (A) (A) (A) (A)
                 (A) (A) (A) (A) (A) (A) (A) (A) (A) (A) (A) (A)
                 (A) (A) (A) (A) (A) (A) (A) (A) (A) (A) (A) (A)
                 (A) (A) (A) (A) (A) (A) (A) (A) (A) (A) (A) (A)
                 (A) (A) (A) (A) (A) (A) (A) (A) (A) (A) (A) (A)
                 (A) (A) (A) (A) (A) (A) (A) (A) (A) (A) (A) (A)
                 (A) (A) (A) (A) (A) (A) (A) (A) (A) (A) (A) (A)
                 (A) (A) (A) (A) (A) (A) (A) (A) (A) (A) (A) (A)
                 (A) (A) (A) (A) (A) (A) (A) (A) (A) (A) (A) (A)
                 (A) (A) (A) (A) (A) (A) (A) (A) (A) (A) (A) (A)
                 (A) (A) (A) (A) (A) (A) (A) (A) (A) (A) (A) (A)
                 (A) (A) (A) (A) (A) (A) (A) (A) (A) (A) (A) (A)
                 (A) (A) (A) (A) (A) (A) (A) (A) (A) (A) (A) (A)
                 (A) (A) (A) (A) (A) (A) (A) (A) (A) (A) (A) (A)
                 (A) (A) (A) (A) (A) (A) (A) (A) (A) (A) (A) (A)
                 (A) (A) (A) (A) (A) (A) (A) (A) (A) (A) (A) (A)
                 (A) (A) (A) (A) (A) (A) (A) (A) (A) (A) (A) (A)
                 (A) (A) (A) (A) (A) (A) (A) (A) (A) (A) (A) (A)
                 (A) (A) (A) (A) (A) (A) (A) (A) (A) (A) (A) (A)
                 (A) (A) (A) (A) (A) (A) (A) (A) (A) (A) (A) (A)
                 (A) (A) (A) (A) (A) (A) (A) (A) (A) (A) (A) (A)
                 (A) (A) (A) (A) (A) (A) (A) (A) (A) (A) (A) (A)
                 (A) (A) (A) (A) (A) (A) (A) (A) (A) (A) (A) (A)
                 (A) (A) (A) (A) (A) (A) (A) (A) (A) (A) (A) (A)
                 (A) (A) (A) (A) (A) (A) (A) (A) (A) (A) (A) (A)
                 (A) (A) (A) (A) (A) (A) (A) (A) (A) (A) (A) (A)
                 (A) (A) (A) (A) (A) (A) (A) (A) (A) (A) (A) (A)
                 (A) (A) (A) (A) (A) (A) (A) (A) (A) (A) (A) (A)
                 (A) (A) (A) (A) (A) (A) (A) (A) (A) (A) (A) (A)
                 (A) (A) (A) (A) (A) (A) (A) (A) (A) (A) (A) (A)
                 (A) (A) (A) (A) (A) (A) (A) (A) (A) (A) (A) (A)
                 (A) (A) (A) (A) (A) (A) (A) (A) (A) (A) (A) (A)
                 (A) (A) (A) (A) (A) (A) (A) (A) (A) (A) (A) (A)
                 (A) (A) (A) (A) (A) (A) (A) (A) (A) (A) (A) (A)
                 (A) (A) (A) (A) (A) (A) (A) (A) (A) (A) (A) (A)
                 (A) (A) (A) (A) (A) (A) (A) (A) (A) (A) (A) (A)
                 (A) (A) (A) (A) (A) (A) (A) (A) (A) (A) (A) (A)
                 (A) (A) (A) (A) (A) (A) (A) (A) (A) (A) (A) (A)
                 (A) (A) (A) (A) (A) (A) (A) (A) (A) (A) (A) (A)
                 (A) (A) (A) (A) (A) (A) (A) (A) (A) (A) (A) (A)
                 (A) (A) (A) (A) (A) (A) (A) (A) (A) (A) (A) (A)
                 (A) (A) (A) (A) (A) (A) (A) (A) (A) (A) (A) (A)
                 (A) (A) (A) (A) (A) (A) (A) (A) (A) (A) (A) (A)
                 (A) (A) (A) (A) (A) (A) (A) (A) (A) (A) (A)
 The electronic state of the initial guess is 1-A.
 Leave Link  401 at Mon Feb  2 21:29:41 2015, MaxMem= 2147483648 cpu:     618.1
 (Enter /opt/g09/l502.exe)
 Closed shell SCF:
 Requested convergence on RMS density matrix=1.00D-08 within 128 cycles.
 Requested convergence on MAX density matrix=1.00D-06.
 Requested convergence on             energy=1.00D-06.
 No special actions if energy rises.
 Using DIIS extrapolation, IDIIS=  1040.
 Integral symmetry usage will be decided dynamically.
      1569537 words used for storage of precomputed grid.
 IEnd=    12420590 IEndB=    12420590 NGot=  2147483648 MDV=  2138672619
 LenX=  2138672619 LenY=  2135079699
 Fock matrices will be formed incrementally for  20 cycles.
 Integral accuracy reduced to 1.0D-05 until final iterations.

 Cycle   1  Pass 0  IDiag  1:
 FoFCou: FMM=T IPFlag=           0 FMFlag=      100000 FMFlg1=        2001
         NFxFlg=           0 DoJE=F BraDBF=F KetDBF=F FulRan=T
         Omega=  0.000000  0.000000  1.000000  0.000000  0.000000 ICntrl=       0 IOpCl=  0
         NMat0=    1 NMatS0=    1 NMatT0=    0 NMatD0=    1 NMtDS0=    0 NMtDT0=    0
         I1Cent=           0 NGrid=           0.
 Symmetry not used in FoFCou.
 FMM levels:  10  Number of levels for PrismC:   9
 E= -4404.69260241115    
 DIIS: error= 2.14D-02 at cycle   1 NSaved=   1.
 NSaved= 1 IEnMin= 1 EnMin= -4404.69260241115     IErMin= 1 ErrMin= 2.14D-02
 ErrMax= 2.14D-02 EMaxC= 1.00D-01 BMatC= 1.70D+00 BMatP= 1.70D+00
 IDIUse=3 WtCom= 7.86D-01 WtEn= 2.14D-01
 Coeff-Com:  0.100D+01
 Coeff-En:   0.100D+01
 Coeff:      0.100D+01
 Gap=     0.161 Goal=   None    Shift=    0.000
 GapD=    0.161 DampG=1.000 DampE=0.500 DampFc=0.5000 IDamp=-1.
 Damping current iteration by 5.00D-01
 RMSDP=2.08D-03 MaxDP=1.97D-01              OVMax= 1.86D-01

 Cycle   2  Pass 0  IDiag  1:
 RMSU=  7.06D-04    CP:  9.64D-01
 E= -4405.60282986931     Delta-E=       -0.910227458167 Rises=F Damp=T
 DIIS: error= 3.57D-03 at cycle   2 NSaved=   2.
 NSaved= 2 IEnMin= 2 EnMin= -4405.60282986931     IErMin= 2 ErrMin= 3.57D-03
 ErrMax= 3.57D-03 EMaxC= 1.00D-01 BMatC= 9.06D-02 BMatP= 1.70D+00
 IDIUse=3 WtCom= 9.64D-01 WtEn= 3.57D-02
 Coeff-Com:  0.181D-01 0.982D+00
 Coeff-En:   0.000D+00 0.100D+01
 Coeff:      0.174D-01 0.983D+00
 Gap=     0.152 Goal=   None    Shift=    0.000
 RMSDP=6.39D-04 MaxDP=9.75D-02 DE=-9.10D-01 OVMax= 1.43D-01

 Cycle   3  Pass 0  IDiag  1:
 RMSU=  4.00D-04    CP:  9.40D-01  1.23D+00
 E= -4406.50433383688     Delta-E=       -0.901503967565 Rises=F Damp=F
 DIIS: error= 3.82D-03 at cycle   3 NSaved=   3.
 NSaved= 3 IEnMin= 3 EnMin= -4406.50433383688     IErMin= 2 ErrMin= 3.57D-03
 ErrMax= 3.82D-03 EMaxC= 1.00D-01 BMatC= 1.02D-01 BMatP= 9.06D-02
 IDIUse=3 WtCom= 1.39D-01 WtEn= 8.61D-01
 Coeff-Com: -0.319D-01 0.534D+00 0.498D+00
 Coeff-En:   0.000D+00 0.000D+00 0.100D+01
 Coeff:     -0.445D-02 0.743D-01 0.930D+00
 Gap=     0.160 Goal=   None    Shift=    0.000
 RMSDP=5.81D-04 MaxDP=6.42D-02 DE=-9.02D-01 OVMax= 1.42D-01

 Cycle   4  Pass 0  IDiag  1:
 RMSU=  3.06D-04    CP:  9.43D-01  1.27D+00  3.19D-01
 E= -4406.23335744078     Delta-E=        0.270976396096 Rises=F Damp=F
 DIIS: error= 7.85D-03 at cycle   4 NSaved=   4.
 NSaved= 4 IEnMin= 3 EnMin= -4406.50433383688     IErMin= 2 ErrMin= 3.57D-03
 ErrMax= 7.85D-03 EMaxC= 1.00D-01 BMatC= 3.60D-01 BMatP= 9.06D-02
 IDIUse=3 WtCom= 1.01D-01 WtEn= 8.99D-01
 Coeff-Com: -0.356D-02 0.146D+00 0.592D+00 0.266D+00
 Coeff-En:   0.000D+00 0.000D+00 0.730D+00 0.270D+00
 Coeff:     -0.361D-03 0.148D-01 0.716D+00 0.270D+00
 Gap=     0.140 Goal=   None    Shift=    0.000
 RMSDP=3.21D-04 MaxDP=3.21D-02 DE= 2.71D-01 OVMax= 8.22D-02

 Cycle   5  Pass 0  IDiag  1:
 RMSU=  5.13D-05    CP:  9.43D-01  1.23D+00  6.51D-01  4.28D-01
 E= -4406.59217365106     Delta-E=       -0.358816210279 Rises=F Damp=F
 DIIS: error= 1.36D-03 at cycle   5 NSaved=   5.
 NSaved= 5 IEnMin= 5 EnMin= -4406.59217365106     IErMin= 5 ErrMin= 1.36D-03
 ErrMax= 1.36D-03 EMaxC= 1.00D-01 BMatC= 1.69D-02 BMatP= 9.06D-02
 IDIUse=3 WtCom= 9.86D-01 WtEn= 1.36D-02
 Coeff-Com:  0.455D-02 0.246D-01 0.393D+00 0.111D+00 0.467D+00
 Coeff-En:   0.000D+00 0.000D+00 0.162D+00 0.000D+00 0.838D+00
 Coeff:      0.449D-02 0.242D-01 0.390D+00 0.110D+00 0.472D+00
 Gap=     0.132 Goal=   None    Shift=    0.000
 RMSDP=8.33D-05 MaxDP=1.07D-02 DE=-3.59D-01 OVMax= 1.80D-02

 Cycle   6  Pass 0  IDiag  1:
 RMSU=  2.16D-05    CP:  9.42D-01  1.23D+00  7.40D-01  3.25D-01  4.83D-01
 E= -4406.60834069291     Delta-E=       -0.016167041853 Rises=F Damp=F
 DIIS: error= 5.22D-04 at cycle   6 NSaved=   6.
 NSaved= 6 IEnMin= 6 EnMin= -4406.60834069291     IErMin= 6 ErrMin= 5.22D-04
 ErrMax= 5.22D-04 EMaxC= 1.00D-01 BMatC= 4.56D-04 BMatP= 1.69D-02
 IDIUse=3 WtCom= 9.95D-01 WtEn= 5.22D-03
 Coeff-Com:  0.295D-02-0.813D-02 0.116D+00 0.609D-02 0.288D+00 0.595D+00
 Coeff-En:   0.000D+00 0.000D+00 0.000D+00 0.000D+00 0.000D+00 0.100D+01
 Coeff:      0.294D-02-0.808D-02 0.115D+00 0.606D-02 0.287D+00 0.597D+00
 Gap=     0.132 Goal=   None    Shift=    0.000
 RMSDP=1.81D-05 MaxDP=1.73D-03 DE=-1.62D-02 OVMax= 4.59D-03

 Cycle   7  Pass 0  IDiag  1:
 RMSU=  7.63D-06    CP:  9.42D-01  1.23D+00  7.46D-01  3.23D-01  6.07D-01
                    CP:  6.51D-01
 E= -4406.60879545876     Delta-E=       -0.000454765846 Rises=F Damp=F
 DIIS: error= 2.09D-04 at cycle   7 NSaved=   7.
 NSaved= 7 IEnMin= 7 EnMin= -4406.60879545876     IErMin= 7 ErrMin= 2.09D-04
 ErrMax= 2.09D-04 EMaxC= 1.00D-01 BMatC= 7.57D-05 BMatP= 4.56D-04
 IDIUse=3 WtCom= 9.98D-01 WtEn= 2.09D-03
 Coeff-Com:  0.157D-02-0.652D-02 0.476D-01-0.511D-02 0.156D+00 0.394D+00
 Coeff-Com:  0.412D+00
 Coeff-En:   0.000D+00 0.000D+00 0.000D+00 0.000D+00 0.000D+00 0.688D-01
 Coeff-En:   0.931D+00
 Coeff:      0.156D-02-0.651D-02 0.475D-01-0.510D-02 0.155D+00 0.394D+00
 Coeff:      0.413D+00
 Gap=     0.132 Goal=   None    Shift=    0.000
 RMSDP=6.98D-06 MaxDP=7.42D-04 DE=-4.55D-04 OVMax= 1.97D-03

 Initial convergence to 1.0D-05 achieved.  Increase integral accuracy.
 Cycle   8  Pass 1  IDiag  1:
 E= -4406.60823818704     Delta-E=        0.000557271716 Rises=F Damp=F
 DIIS: error= 3.32D-04 at cycle   1 NSaved=   1.
 NSaved= 1 IEnMin= 1 EnMin= -4406.60823818704     IErMin= 1 ErrMin= 3.32D-04
 ErrMax= 3.32D-04 EMaxC= 1.00D-01 BMatC= 1.24D-04 BMatP= 1.24D-04
 IDIUse=3 WtCom= 9.97D-01 WtEn= 3.32D-03
 Coeff-Com:  0.100D+01
 Coeff-En:   0.100D+01
 Coeff:      0.100D+01
 Gap=     0.132 Goal=   None    Shift=    0.000
 RMSDP=6.98D-06 MaxDP=7.42D-04 DE= 5.57D-04 OVMax= 1.75D-03

 Cycle   9  Pass 1  IDiag  1:
 RMSU=  1.13D-04    CP:  9.99D-01
 E= -4406.60831517265     Delta-E=       -0.000076985601 Rises=F Damp=F
 DIIS: error= 1.85D-04 at cycle   2 NSaved=   2.
 NSaved= 2 IEnMin= 2 EnMin= -4406.60831517265     IErMin= 2 ErrMin= 1.85D-04
 ErrMax= 1.85D-04 EMaxC= 1.00D-01 BMatC= 3.21D-05 BMatP= 1.24D-04
 IDIUse=3 WtCom= 9.98D-01 WtEn= 1.85D-03
 Coeff-Com:  0.245D+00 0.755D+00
 Coeff-En:   0.000D+00 0.100D+01
 Coeff:      0.244D+00 0.756D+00
 Gap=     0.133 Goal=   None    Shift=    0.000
 RMSDP=1.05D-05 MaxDP=1.67D-03 DE=-7.70D-05 OVMax= 3.14D-03

 Cycle  10  Pass 1  IDiag  1:
 RMSU=  7.41D-06    CP:  9.99D-01  1.00D+00
 E= -4406.60824675072     Delta-E=        0.000068421927 Rises=F Damp=F
 DIIS: error= 3.29D-04 at cycle   3 NSaved=   3.
 NSaved= 3 IEnMin= 2 EnMin= -4406.60831517265     IErMin= 2 ErrMin= 1.85D-04
 ErrMax= 3.29D-04 EMaxC= 1.00D-01 BMatC= 9.20D-05 BMatP= 3.21D-05
 IDIUse=3 WtCom= 3.56D-01 WtEn= 6.44D-01
 Coeff-Com: -0.889D-03 0.630D+00 0.371D+00
 Coeff-En:   0.000D+00 0.680D+00 0.320D+00
 Coeff:     -0.316D-03 0.662D+00 0.338D+00
 Gap=     0.132 Goal=   None    Shift=    0.000
 RMSDP=5.89D-06 MaxDP=8.24D-04 DE= 6.84D-05 OVMax= 1.82D-03

 Cycle  11  Pass 1  IDiag  1:
 RMSU=  5.95D-07    CP:  9.99D-01  1.01D+00  4.48D-01
 E= -4406.60834938989     Delta-E=       -0.000102639169 Rises=F Damp=F
 DIIS: error= 3.03D-05 at cycle   4 NSaved=   4.
 NSaved= 4 IEnMin= 4 EnMin= -4406.60834938989     IErMin= 4 ErrMin= 3.03D-05
 ErrMax= 3.03D-05 EMaxC= 1.00D-01 BMatC= 1.95D-06 BMatP= 3.21D-05
 IDIUse=1 WtCom= 1.00D+00 WtEn= 0.00D+00
 Coeff-Com: -0.346D-02 0.410D+00 0.193D+00 0.401D+00
 Coeff:     -0.346D-02 0.410D+00 0.193D+00 0.401D+00
 Gap=     0.132 Goal=   None    Shift=    0.000
 RMSDP=9.33D-07 MaxDP=1.17D-04 DE=-1.03D-04 OVMax= 2.28D-04

 Cycle  12  Pass 1  IDiag  1:
 RMSU=  2.17D-07    CP:  9.99D-01  1.01D+00  3.72D-01  5.50D-01
 E= -4406.60835149939     Delta-E=       -0.000002109500 Rises=F Damp=F
 DIIS: error= 2.29D-06 at cycle   5 NSaved=   5.
 NSaved= 5 IEnMin= 5 EnMin= -4406.60835149939     IErMin= 5 ErrMin= 2.29D-06
 ErrMax= 2.29D-06 EMaxC= 1.00D-01 BMatC= 2.40D-08 BMatP= 1.95D-06
 IDIUse=1 WtCom= 1.00D+00 WtEn= 0.00D+00
 Coeff-Com: -0.212D-02 0.227D+00 0.104D+00 0.248D+00 0.424D+00
 Coeff:     -0.212D-02 0.227D+00 0.104D+00 0.248D+00 0.424D+00
 Gap=     0.132 Goal=   None    Shift=    0.000
 RMSDP=1.31D-07 MaxDP=1.06D-05 DE=-2.11D-06 OVMax= 3.63D-05

 Cycle  13  Pass 1  IDiag  1:
 RMSU=  6.96D-08    CP:  9.99D-01  1.01D+00  3.72D-01  5.84D-01  7.37D-01
 E= -4406.60835152313     Delta-E=       -0.000000023745 Rises=F Damp=F
 DIIS: error= 8.05D-07 at cycle   6 NSaved=   6.
 NSaved= 6 IEnMin= 6 EnMin= -4406.60835152313     IErMin= 6 ErrMin= 8.05D-07
 ErrMax= 8.05D-07 EMaxC= 1.00D-01 BMatC= 3.16D-09 BMatP= 2.40D-08
 IDIUse=1 WtCom= 1.00D+00 WtEn= 0.00D+00
 Coeff-Com: -0.872D-03 0.884D-01 0.397D-01 0.104D+00 0.281D+00 0.488D+00
 Coeff:     -0.872D-03 0.884D-01 0.397D-01 0.104D+00 0.281D+00 0.488D+00
 Gap=     0.132 Goal=   None    Shift=    0.000
 RMSDP=4.57D-08 MaxDP=5.25D-06 DE=-2.37D-08 OVMax= 1.30D-05

 Cycle  14  Pass 1  IDiag  1:
 RMSU=  2.22D-08    CP:  9.99D-01  1.01D+00  3.72D-01  5.83D-01  7.98D-01
                    CP:  7.24D-01
 E= -4406.60835152605     Delta-E=       -0.000000002921 Rises=F Damp=F
 DIIS: error= 1.80D-07 at cycle   7 NSaved=   7.
 NSaved= 7 IEnMin= 7 EnMin= -4406.60835152605     IErMin= 7 ErrMin= 1.80D-07
 ErrMax= 1.80D-07 EMaxC= 1.00D-01 BMatC= 2.19D-10 BMatP= 3.16D-09
 IDIUse=1 WtCom= 1.00D+00 WtEn= 0.00D+00
 Coeff-Com: -0.159D-03 0.143D-01 0.624D-02 0.188D-01 0.853D-01 0.260D+00
 Coeff-Com:  0.615D+00
 Coeff:     -0.159D-03 0.143D-01 0.624D-02 0.188D-01 0.853D-01 0.260D+00
 Coeff:      0.615D+00
 Gap=     0.132 Goal=   None    Shift=    0.000
 RMSDP=1.23D-08 MaxDP=2.51D-06 DE=-2.92D-09 OVMax= 2.67D-06

 Cycle  15  Pass 1  IDiag  1:
 RMSU=  6.23D-09    CP:  9.99D-01  1.01D+00  3.72D-01  5.84D-01  8.01D-01
                    CP:  7.66D-01  7.90D-01
 E= -4406.60835152688     Delta-E=       -0.000000000826 Rises=F Damp=F
 DIIS: error= 7.48D-08 at cycle   8 NSaved=   8.
 NSaved= 8 IEnMin= 8 EnMin= -4406.60835152688     IErMin= 8 ErrMin= 7.48D-08
 ErrMax= 7.48D-08 EMaxC= 1.00D-01 BMatC= 2.68D-11 BMatP= 2.19D-10
 IDIUse=1 WtCom= 1.00D+00 WtEn= 0.00D+00
 Coeff-Com:  0.238D-04-0.342D-02-0.161D-02-0.307D-02 0.903D-02 0.804D-01
 Coeff-Com:  0.326D+00 0.592D+00
 Coeff:      0.238D-04-0.342D-02-0.161D-02-0.307D-02 0.903D-02 0.804D-01
 Coeff:      0.326D+00 0.592D+00
 Gap=     0.132 Goal=   None    Shift=    0.000
 RMSDP=4.63D-09 MaxDP=4.22D-07 DE=-8.26D-10 OVMax= 1.40D-06

 SCF Done:  E(RB3LYP) =  -4406.60835153     A.U. after   15 cycles
             Convg  =    0.4630D-08             -V/T =  2.0065
 KE= 4.378266796742D+03 PE=-4.876596962779D+04 EE= 2.072822715712D+04
 Leave Link  502 at Mon Feb  2 21:57:30 2015, MaxMem= 2147483648 cpu:   39438.8
 (Enter /opt/g09/l601.exe)
 Copying SCF densities to generalized density rwf, IOpCl= 0 IROHF=0.

 **********************************************************************

            Population analysis using the SCF density.

 **********************************************************************

 Orbital symmetries:
       Occupied  (A) (A) (A) (A) (A) (A) (A) (A) (A) (A) (A) (A)
                 (A) (A) (A) (A) (A) (A) (A) (A) (A) (A) (A) (A)
                 (A) (A) (A) (A) (A) (A) (A) (A) (A) (A) (A) (A)
                 (A) (A) (A) (A) (A) (A) (A) (A) (A) (A) (A) (A)
                 (A) (A) (A) (A) (A) (A) (A) (A) (A) (A) (A) (A)
                 (A) (A) (A) (A) (A) (A) (A) (A) (A) (A) (A) (A)
                 (A) (A) (A) (A) (A) (A) (A) (A) (A) (A) (A) (A)
                 (A) (A) (A) (A) (A) (A) (A) (A) (A) (A) (A) (A)
                 (A) (A) (A) (A) (A) (A) (A) (A) (A) (A) (A) (A)
                 (A) (A) (A) (A) (A) (A) (A) (A) (A) (A) (A) (A)
                 (A) (A) (A) (A) (A) (A) (A) (A) (A) (A) (A) (A)
                 (A) (A) (A) (A) (A) (A) (A) (A) (A) (A) (A) (A)
                 (A) (A) (A) (A) (A) (A) (A) (A) (A) (A) (A) (A)
                 (A) (A) (A) (A) (A) (A) (A) (A) (A) (A) (A) (A)
                 (A) (A) (A) (A) (A) (A) (A) (A) (A) (A) (A) (A)
                 (A) (A) (A) (A) (A) (A) (A) (A) (A) (A) (A) (A)
                 (A) (A) (A) (A) (A) (A) (A) (A) (A) (A) (A) (A)
                 (A) (A) (A) (A) (A) (A) (A) (A) (A) (A) (A) (A)
                 (A) (A) (A) (A) (A) (A) (A) (A) (A) (A) (A) (A)
                 (A) (A) (A) (A) (A) (A) (A) (A) (A) (A) (A) (A)
                 (A) (A) (A) (A) (A) (A) (A) (A) (A) (A) (A) (A)
                 (A) (A) (A) (A) (A) (A) (A) (A) (A) (A) (A) (A)
                 (A) (A) (A) (A) (A) (A) (A) (A) (A) (A) (A) (A)
                 (A) (A) (A) (A) (A) (A) (A) (A) (A) (A) (A) (A)
                 (A) (A) (A) (A) (A) (A) (A) (A) (A) (A) (A) (A)
                 (A) (A) (A) (A) (A) (A) (A) (A) (A) (A) (A) (A)
                 (A) (A) (A) (A) (A) (A) (A) (A) (A) (A) (A) (A)
                 (A) (A) (A) (A) (A) (A) (A) (A) (A) (A) (A) (A)
                 (A) (A) (A) (A) (A) (A) (A) (A) (A) (A) (A) (A)
                 (A) (A) (A) (A) (A) (A) (A)
       Virtual   (A) (A) (A) (A) (A) (A) (A) (A) (A) (A) (A) (A)
                 (A) (A) (A) (A) (A) (A) (A) (A) (A) (A) (A) (A)
                 (A) (A) (A) (A) (A) (A) (A) (A) (A) (A) (A) (A)
                 (A) (A) (A) (A) (A) (A) (A) (A) (A) (A) (A) (A)
                 (A) (A) (A) (A) (A) (A) (A) (A) (A) (A) (A) (A)
                 (A) (A) (A) (A) (A) (A) (A) (A) (A) (A) (A) (A)
                 (A) (A) (A) (A) (A) (A) (A) (A) (A) (A) (A) (A)
                 (A) (A) (A) (A) (A) (A) (A) (A) (A) (A) (A) (A)
                 (A) (A) (A) (A) (A) (A) (A) (A) (A) (A) (A) (A)
                 (A) (A) (A) (A) (A) (A) (A) (A) (A) (A) (A) (A)
                 (A) (A) (A) (A) (A) (A) (A) (A) (A) (A) (A) (A)
                 (A) (A) (A) (A) (A) (A) (A) (A) (A) (A) (A) (A)
                 (A) (A) (A) (A) (A) (A) (A) (A) (A) (A) (A) (A)
                 (A) (A) (A) (A) (A) (A) (A) (A) (A) (A) (A) (A)
                 (A) (A) (A) (A) (A) (A) (A) (A) (A) (A) (A) (A)
                 (A) (A) (A) (A) (A) (A) (A) (A) (A) (A) (A) (A)
                 (A) (A) (A) (A) (A) (A) (A) (A) (A) (A) (A) (A)
                 (A) (A) (A) (A) (A) (A) (A) (A) (A) (A) (A) (A)
                 (A) (A) (A) (A) (A) (A) (A) (A) (A) (A) (A) (A)
                 (A) (A) (A) (A) (A) (A) (A) (A) (A) (A) (A) (A)
                 (A) (A) (A) (A) (A) (A) (A) (A) (A) (A) (A) (A)
                 (A) (A) (A) (A) (A) (A) (A) (A) (A) (A) (A) (A)
                 (A) (A) (A) (A) (A) (A) (A) (A) (A) (A) (A) (A)
                 (A) (A) (A) (A) (A) (A) (A) (A) (A) (A) (A) (A)
                 (A) (A) (A) (A) (A) (A) (A) (A) (A) (A) (A) (A)
                 (A) (A) (A) (A) (A) (A) (A) (A) (A) (A) (A) (A)
                 (A) (A) (A) (A) (A) (A) (A) (A) (A) (A) (A) (A)
                 (A) (A) (A) (A) (A) (A) (A) (A) (A) (A) (A) (A)
                 (A) (A) (A) (A) (A) (A) (A) (A) (A) (A) (A) (A)
                 (A) (A) (A) (A) (A) (A) (A) (A) (A) (A) (A) (A)
                 (A) (A) (A) (A) (A) (A) (A) (A) (A) (A) (A) (A)
                 (A) (A) (A) (A) (A) (A) (A) (A) (A) (A) (A) (A)
                 (A) (A) (A) (A) (A) (A) (A) (A) (A) (A) (A) (A)
                 (A) (A) (A) (A) (A) (A) (A) (A) (A) (A) (A) (A)
                 (A) (A) (A) (A) (A) (A) (A) (A) (A) (A) (A) (A)
                 (A) (A) (A) (A) (A) (A) (A) (A) (A) (A) (A) (A)
                 (A) (A) (A) (A) (A) (A) (A) (A) (A) (A) (A) (A)
                 (A) (A) (A) (A) (A) (A) (A) (A) (A) (A) (A) (A)
                 (A) (A) (A) (A) (A) (A) (A) (A) (A) (A) (A) (A)
                 (A) (A) (A) (A) (A) (A) (A) (A) (A) (A) (A) (A)
                 (A) (A) (A) (A) (A) (A) (A) (A) (A) (A) (A) (A)
                 (A) (A) (A) (A) (A) (A) (A) (A) (A) (A) (A) (A)
                 (A) (A) (A) (A) (A) (A) (A) (A) (A) (A) (A) (A)
                 (A) (A) (A) (A) (A) (A) (A) (A) (A) (A) (A) (A)
                 (A) (A) (A) (A) (A) (A) (A) (A) (A) (A) (A) (A)
                 (A) (A) (A) (A) (A) (A) (A) (A) (A) (A) (A) (A)
                 (A) (A) (A) (A) (A) (A) (A) (A) (A) (A) (A) (A)
                 (A) (A) (A) (A) (A) (A) (A) (A) (A) (A) (A) (A)
                 (A) (A) (A) (A) (A) (A) (A) (A) (A) (A) (A) (A)
                 (A) (A) (A) (A) (A) (A) (A) (A) (A) (A) (A) (A)
                 (A) (A) (A) (A) (A) (A) (A) (A) (A) (A) (A) (A)
                 (A) (A) (A) (A) (A) (A) (A) (A) (A) (A) (A) (A)
                 (A) (A) (A) (A) (A) (A) (A) (A) (A) (A) (A) (A)
                 (A) (A) (A) (A) (A) (A) (A) (A) (A) (A) (A) (A)
                 (A) (A) (A) (A) (A) (A) (A) (A) (A) (A) (A) (A)
                 (A) (A) (A) (A) (A) (A) (A) (A) (A) (A) (A) (A)
                 (A) (A) (A) (A) (A) (A) (A) (A) (A) (A) (A) (A)
                 (A) (A) (A) (A) (A) (A) (A) (A) (A) (A) (A) (A)
                 (A) (A) (A) (A) (A) (A) (A) (A) (A) (A) (A) (A)
                 (A) (A) (A) (A) (A) (A) (A) (A) (A) (A) (A) (A)
                 (A) (A) (A) (A) (A) (A) (A) (A) (A) (A) (A) (A)
                 (A) (A) (A) (A) (A) (A) (A) (A) (A) (A) (A) (A)
                 (A) (A) (A) (A) (A) (A) (A) (A) (A) (A) (A) (A)
                 (A) (A) (A) (A) (A) (A) (A) (A) (A) (A) (A) (A)
                 (A) (A) (A) (A) (A) (A) (A) (A) (A) (A) (A) (A)
                 (A) (A) (A) (A) (A) (A) (A) (A) (A) (A) (A) (A)
                 (A) (A) (A) (A) (A) (A) (A) (A) (A) (A) (A) (A)
                 (A) (A) (A) (A) (A) (A) (A) (A) (A) (A) (A) (A)
                 (A) (A) (A) (A) (A) (A) (A) (A) (A) (A) (A) (A)
                 (A) (A) (A) (A) (A) (A) (A) (A) (A) (A) (A) (A)
                 (A) (A) (A) (A) (A) (A) (A) (A) (A) (A) (A) (A)
                 (A) (A) (A) (A) (A) (A) (A) (A) (A) (A) (A) (A)
                 (A) (A) (A) (A) (A) (A) (A) (A) (A) (A) (A) (A)
                 (A) (A) (A) (A) (A) (A) (A) (A) (A) (A) (A) (A)
                 (A) (A) (A) (A) (A) (A) (A) (A) (A) (A) (A) (A)
                 (A) (A) (A) (A) (A) (A) (A) (A) (A) (A) (A) (A)
                 (A) (A) (A) (A) (A) (A) (A) (A) (A) (A) (A) (A)
                 (A) (A) (A) (A) (A) (A) (A) (A) (A) (A) (A) (A)
                 (A) (A) (A) (A) (A) (A) (A) (A) (A) (A) (A) (A)
                 (A) (A) (A) (A) (A) (A) (A) (A) (A) (A) (A) (A)
                 (A) (A) (A) (A) (A) (A) (A) (A) (A) (A) (A) (A)
                 (A) (A) (A) (A) (A) (A) (A) (A) (A) (A) (A) (A)
                 (A) (A) (A) (A) (A) (A) (A) (A) (A) (A) (A) (A)
                 (A) (A) (A) (A) (A) (A) (A) (A) (A) (A) (A) (A)
                 (A) (A) (A) (A) (A) (A) (A) (A) (A) (A) (A) (A)
                 (A) (A) (A) (A) (A) (A) (A) (A) (A) (A) (A) (A)
                 (A) (A) (A) (A) (A) (A) (A) (A) (A) (A) (A) (A)
                 (A) (A) (A) (A) (A) (A) (A) (A) (A) (A) (A) (A)
                 (A) (A) (A) (A) (A) (A) (A) (A) (A) (A) (A) (A)
                 (A) (A) (A) (A) (A) (A) (A) (A) (A) (A) (A) (A)
                 (A) (A) (A) (A) (A) (A) (A) (A) (A) (A) (A) (A)
                 (A) (A) (A) (A) (A) (A) (A) (A) (A) (A) (A) (A)
                 (A) (A) (A) (A) (A) (A) (A) (A) (A) (A) (A) (A)
                 (A) (A) (A) (A) (A) (A) (A) (A) (A) (A) (A) (A)
                 (A) (A) (A) (A) (A) (A) (A) (A) (A) (A) (A) (A)
                 (A) (A) (A) (A) (A) (A) (A) (A) (A) (A) (A) (A)
                 (A) (A) (A) (A) (A) (A) (A) (A) (A) (A) (A) (A)
                 (A) (A) (A) (A) (A) (A) (A) (A) (A) (A) (A) (A)
                 (A) (A) (A) (A) (A) (A) (A) (A) (A) (A) (A) (A)
                 (A) (A) (A) (A) (A) (A) (A) (A) (A) (A) (A) (A)
                 (A) (A) (A) (A) (A) (A) (A) (A) (A) (A) (A) (A)
                 (A) (A) (A) (A) (A) (A) (A) (A) (A) (A) (A) (A)
                 (A) (A) (A) (A) (A) (A) (A) (A) (A) (A) (A) (A)
                 (A) (A) (A) (A) (A) (A) (A) (A) (A) (A) (A) (A)
                 (A) (A) (A) (A) (A) (A) (A) (A) (A) (A) (A) (A)
                 (A) (A) (A) (A) (A) (A) (A) (A) (A) (A) (A) (A)
                 (A) (A) (A) (A) (A) (A) (A) (A) (A) (A) (A) (A)
                 (A) (A) (A) (A) (A) (A) (A) (A) (A) (A) (A) (A)
                 (A) (A) (A) (A) (A) (A) (A) (A) (A) (A) (A) (A)
                 (A) (A) (A) (A) (A) (A) (A) (A) (A) (A) (A) (A)
                 (A) (A) (A) (A) (A) (A) (A) (A) (A) (A) (A) (A)
                 (A) (A) (A) (A) (A) (A) (A) (A) (A) (A) (A) (A)
                 (A) (A) (A) (A) (A) (A) (A) (A) (A) (A) (A) (A)
                 (A) (A) (A) (A) (A) (A) (A) (A) (A) (A) (A) (A)
                 (A) (A) (A) (A) (A) (A) (A) (A) (A) (A) (A) (A)
                 (A) (A) (A) (A) (A) (A) (A) (A) (A) (A) (A) (A)
                 (A) (A) (A) (A) (A) (A) (A) (A) (A) (A) (A) (A)
                 (A) (A) (A) (A) (A) (A) (A) (A) (A) (A) (A) (A)
                 (A) (A) (A) (A) (A) (A) (A) (A) (A) (A) (A) (A)
                 (A) (A) (A) (A) (A) (A) (A) (A) (A) (A) (A)
 The electronic state is 1-A.
 Alpha  occ. eigenvalues --  -19.17187 -19.17094 -19.16844 -19.16801 -19.16645
 Alpha  occ. eigenvalues --  -19.16565 -19.16169 -19.16119 -19.16109 -19.15979
 Alpha  occ. eigenvalues --  -19.14943 -19.14906 -14.34820 -14.34763 -14.34486
 Alpha  occ. eigenvalues --  -14.34243 -10.24806 -10.24692 -10.24324 -10.24308
 Alpha  occ. eigenvalues --  -10.24282 -10.24273 -10.24234 -10.24166 -10.24061
 Alpha  occ. eigenvalues --  -10.24027 -10.23734 -10.23703 -10.23679 -10.23650
 Alpha  occ. eigenvalues --  -10.23605 -10.23569 -10.23522 -10.23489 -10.23405
 Alpha  occ. eigenvalues --  -10.23375 -10.23323 -10.23175 -10.22624 -10.22572
 Alpha  occ. eigenvalues --  -10.21880 -10.21755 -10.21716 -10.21533 -10.21387
 Alpha  occ. eigenvalues --  -10.21360 -10.21349 -10.21293 -10.21219 -10.21192
 Alpha  occ. eigenvalues --  -10.20940 -10.20889 -10.20163 -10.18877 -10.18620
 Alpha  occ. eigenvalues --  -10.18570 -10.18353 -10.18217 -10.18187 -10.18184
 Alpha  occ. eigenvalues --  -10.18174 -10.18152 -10.18112 -10.18078 -10.17999
 Alpha  occ. eigenvalues --  -10.17970 -10.17967 -10.17965 -10.17937 -10.17925
 Alpha  occ. eigenvalues --  -10.17912 -10.17887 -10.17877 -10.17869 -10.17849
 Alpha  occ. eigenvalues --  -10.17835 -10.17818 -10.17803 -10.17769 -10.17763
 Alpha  occ. eigenvalues --  -10.17710 -10.17675 -10.17662 -10.17659 -10.17659
 Alpha  occ. eigenvalues --  -10.17630 -10.17616 -10.17610 -10.17609 -10.17602
 Alpha  occ. eigenvalues --  -10.17594 -10.17571 -10.17506 -10.17473 -10.17466
 Alpha  occ. eigenvalues --  -10.17409 -10.17373 -10.17371 -10.17333 -10.17202
 Alpha  occ. eigenvalues --  -10.17075  -1.07052  -1.06720  -1.06524  -1.06499
 Alpha  occ. eigenvalues --   -1.06454  -1.06192  -1.05789  -1.05740  -1.05736
 Alpha  occ. eigenvalues --   -1.05589  -1.04708  -1.04690  -0.95280  -0.95239
 Alpha  occ. eigenvalues --   -0.95195  -0.94919  -0.88975  -0.86084  -0.85044
 Alpha  occ. eigenvalues --   -0.84836  -0.84819  -0.84636  -0.84266  -0.84156
 Alpha  occ. eigenvalues --   -0.83641  -0.83384  -0.82298  -0.82151  -0.79523
 Alpha  occ. eigenvalues --   -0.77483  -0.76427  -0.76045  -0.75866  -0.75746
 Alpha  occ. eigenvalues --   -0.75694  -0.75515  -0.75184  -0.75164  -0.74978
 Alpha  occ. eigenvalues --   -0.74686  -0.74507  -0.74303  -0.74098  -0.73777
 Alpha  occ. eigenvalues --   -0.73677  -0.73655  -0.73359  -0.73110  -0.72987
 Alpha  occ. eigenvalues --   -0.72729  -0.70830  -0.70594  -0.70300  -0.69826
 Alpha  occ. eigenvalues --   -0.69776  -0.69709  -0.69637  -0.69484  -0.68747
 Alpha  occ. eigenvalues --   -0.68671  -0.67673  -0.67424  -0.67260  -0.66236
 Alpha  occ. eigenvalues --   -0.66141  -0.63215  -0.62684  -0.61867  -0.61371
 Alpha  occ. eigenvalues --   -0.61094  -0.60808  -0.60744  -0.60531  -0.60287
 Alpha  occ. eigenvalues --   -0.60128  -0.59757  -0.59656  -0.59507  -0.59111
 Alpha  occ. eigenvalues --   -0.58976  -0.58321  -0.58177  -0.57674  -0.57582
[...]
 Alpha virt. eigenvalues --    2.03168   2.03485   2.03617   2.03817   2.04183
 Alpha virt. eigenvalues --    2.04496   2.04891   2.05208   2.05268   2.05400
 Alpha virt. eigenvalues --    2.05550   2.05765   2.05781   2.05961   2.06063
 Alpha virt. eigenvalues --    2.06322   2.06342   2.06665   2.06877   2.06908
 Alpha virt. eigenvalues --    2.07072   2.07187   2.07204   2.07470   2.07561
 Alpha virt. eigenvalues --    2.07633   2.07738   2.07869   2.08050   2.08112
 Alpha virt. eigenvalues --    2.08398   2.08456   2.08894   2.09110   2.09471
 Alpha virt. eigenvalues --    2.09604   2.09993   2.10321   2.10524   2.10591
 Alpha virt. eigenvalues --    2.10691   2.10895   2.11150   2.11539   2.11873
 Alpha virt. eigenvalues --    2.12125   2.12522   2.12797   2.12887   2.13222
 Alpha virt. eigenvalues --    2.13711   2.13826   2.14265   2.14381   2.14787
 Alpha virt. eigenvalues --    2.15242   2.15581   2.15918   2.16059   2.16315
 Alpha virt. eigenvalues --    2.16820   2.17289   2.17421   2.17631   2.17824
 Alpha virt. eigenvalues --    2.17910   2.18202   2.18323   2.18625   2.18701
 Alpha virt. eigenvalues --    2.18946   2.19454   2.19689   2.19884   2.20025
 Alpha virt. eigenvalues --    2.20302   2.20504   2.21081   2.21615   2.21720
 Alpha virt. eigenvalues --    2.22095   2.22269   2.22670   2.22922   2.23094
 Alpha virt. eigenvalues --    2.23168   2.23369   2.23418   2.23538   2.23832
 Alpha virt. eigenvalues --    2.23906   2.24045   2.24109   2.24497   2.24868
 Alpha virt. eigenvalues --    2.25452   2.25757   2.25979   2.26254   2.26481
 Alpha virt. eigenvalues --    2.26749   2.27028   2.27434   2.27664   2.27847
 Alpha virt. eigenvalues --    2.27861   2.28175   2.28667   2.29082   2.29183
 Alpha virt. eigenvalues --    2.29482   2.30139   2.30413   2.31336   2.31551
 Alpha virt. eigenvalues --    2.31969   2.32222   2.32625   2.33411   2.33528
 Alpha virt. eigenvalues --    2.33760   2.33977   2.34300   2.34689   2.35061
 Alpha virt. eigenvalues --    2.35903   2.36502   2.37557   2.38872   2.39295
 Alpha virt. eigenvalues --    2.39447   2.39476   2.39508   2.39605   2.39757
 Alpha virt. eigenvalues --    2.39786   2.39827   2.39864   2.40175   2.40223
 Alpha virt. eigenvalues --    2.40743   2.41423   2.41949   2.42155   2.42413
 Alpha virt. eigenvalues --    2.42636   2.43271   2.43932   2.44045   2.44199
 Alpha virt. eigenvalues --    2.44301   2.44517   2.44590   2.44788   2.44937
 Alpha virt. eigenvalues --    2.44997   2.45145   2.45190   2.45755   2.45944
 Alpha virt. eigenvalues --    2.46174   2.46792   2.46988   2.47264   2.47456
 Alpha virt. eigenvalues --    2.47519   2.47837   2.48160   2.48487   2.48638
 Alpha virt. eigenvalues --    2.48725   2.49046   2.49194   2.49321   2.49647
 Alpha virt. eigenvalues --    2.49737   2.49909   2.50119   2.50167   2.50353
 Alpha virt. eigenvalues --    2.50656   2.50964   2.51066   2.51599   2.51806
 Alpha virt. eigenvalues --    2.51999   2.52290   2.52776   2.53728   2.54248
 Alpha virt. eigenvalues --    2.54375   2.54691   2.55139   2.55340   2.57478
 Alpha virt. eigenvalues --    2.57633   2.58177   2.59000   2.59456   2.59608
 Alpha virt. eigenvalues --    2.60055   2.60996   2.61017   2.61949   2.62352
 Alpha virt. eigenvalues --    2.62460   2.63486   2.64224   2.65220   2.65395
 Alpha virt. eigenvalues --    2.65983   2.66257   2.66377   2.66505   2.66911
 Alpha virt. eigenvalues --    2.67317   2.67635   2.68046   2.68464   2.68817
 Alpha virt. eigenvalues --    2.69010   2.69559   2.69705   2.69846   2.70562
 Alpha virt. eigenvalues --    2.71147   2.72761   2.73092   2.74247   2.74964
 Alpha virt. eigenvalues --    2.75190   2.75890   2.76041   2.77552   2.79170
 Alpha virt. eigenvalues --    2.79216   2.79808   2.80339   2.80793   2.81257
 Alpha virt. eigenvalues --    2.81723   2.82571   2.82857   2.83177   2.86151
 Alpha virt. eigenvalues --    2.86649   2.86731   2.87034   2.87195   2.87812
 Alpha virt. eigenvalues --    2.87887   2.88526   2.88651   2.88717   2.88805
 Alpha virt. eigenvalues --    2.89117   2.89687   2.90086   2.91760   2.92089
 Alpha virt. eigenvalues --    2.92497   2.92604   2.92991   2.93525   2.93740
 Alpha virt. eigenvalues --    2.94602   2.94754   2.95532   2.96829   2.96930
 Alpha virt. eigenvalues --    2.98858   2.99001   2.99467   3.00041   3.01208
 Alpha virt. eigenvalues --    3.01534   3.01800   3.02422   3.02672   3.02941
 Alpha virt. eigenvalues --    3.03030   3.03149   3.03456   3.03523   3.03542
 Alpha virt. eigenvalues --    3.03629   3.03743   3.03797   3.04697   3.04964
 Alpha virt. eigenvalues --    3.04997   3.05180   3.05251   3.05685   3.06632
 Alpha virt. eigenvalues --    3.06751   3.08839   3.09210   3.10171   3.10910
 Alpha virt. eigenvalues --    3.14656   3.19445   3.19505   3.20327   3.20838
 Alpha virt. eigenvalues --    3.21742   3.21814   3.27163   3.27193   3.27391
 Alpha virt. eigenvalues --    3.27483   3.31023   3.31199   3.37157   3.37744
 Alpha virt. eigenvalues --    3.39912   3.40236   3.40361   3.40790   3.40917
 Alpha virt. eigenvalues --    3.40966   3.41160   3.41519   3.41618   3.42126
 Alpha virt. eigenvalues --    3.42154   3.42353   3.42636   3.43146   3.55805
 Alpha virt. eigenvalues --    3.55953   3.66101   3.66171   3.66260   3.66317
 Alpha virt. eigenvalues --    3.68095   3.68262   3.68357   3.68646
          Condensed to atoms (all electrons):
 Mulliken atomic charges:
              1
     1  C   -0.299052
     2  C    0.097285
     3  C    0.042330
     4  C    0.044366
     5  C    0.099238
     6  C    0.094831
     7  C    0.041406
     8  C    0.041351
     9  C    0.096258
    10  C    0.007542
    11  C    0.090811
    12  C    0.060888
    13  C   -0.014680
    14  C   -0.013769
    15  C    0.052613
    16  C    0.081106
    17  C    0.019582
    18  C    0.020599
    19  C    0.094573
    20  C    0.050871
    21  C   -0.013564
    22  C   -0.015209
    23  C    0.067981
    24  C    0.087036
    25  C    0.009905
    26  N   -0.284487
    27  N   -0.285165
    28  N   -0.275522
    29  N   -0.276327
    30  C   -0.009472
    31  C   -0.009310
    32  C    0.091220
    33  C    0.085070
    34  C    0.079611
    35  C    0.013031
    36  C    0.079968
    37  C    0.017063
    38  C    0.031359
    39  C   -0.005037
    40  C    0.117859
    41  C    0.048314
    42  C    0.045372
    43  C    0.036097
    44  C   -0.002999
    45  C    0.119990
    46  C    0.039772
    47  C    0.043084
    48  C    0.062666
    49  C    0.017181
    50  C    0.138611
    51  C    0.050273
    52  C    0.068283
    53  C    0.065675
    54  C    0.018214
    55  C    0.139851
    56  C    0.041818
    57  C    0.065872
    58  C    0.073273
    59  C   -0.013826
    60  C    0.119931
    61  C   -0.006984
    62  C    0.153211
    63  C    0.042914
    64  C   -0.005530
    65  C    0.116952
    66  C    0.043977
    67  C    0.037872
    68  C    0.043558
    69  C    0.034989
    70  C    0.117422
    71  C   -0.005532
    72  C    0.026524
    73  C    0.074259
    74  C   -0.007969
    75  C    0.119991
    76  C   -0.009543
    77  C    0.152065
    78  H   -0.040109
    79  H   -0.044821
    80  H   -0.032874
    81  H   -0.058008
    82  H   -0.056734
    83  H   -0.032330
    84  H   -0.059656
    85  H   -0.039699
    86  H   -0.059186
    87  H   -0.041643
    88  H   -0.051071
    89  H   -0.037927
    90  O   -0.282285
    91  C    0.132535
    92  O   -0.284821
    93  C    0.132220
    94  O   -0.284236
    95  O   -0.281837
    96  C    0.131832
    97  C    0.131973
    98  H   -0.034484
    99  H   -0.029156
   100  H   -0.032795
   101  H   -0.037815
   102  H   -0.030888
   103  H   -0.029436
   104  H   -0.025048
   105  H   -0.035453
   106  H   -0.039417
   107  H   -0.029943
   108  H   -0.023264
   109  H   -0.038168
   110  H   -0.029165
   111  H   -0.035870
   112  H   -0.033649
   113  H    0.023118
   114  H    0.022517
   115  H    0.029963
   116  H    0.024082
   117  H    0.023901
   118  H    0.030895
   119  H    0.030336
   120  H    0.024154
   121  H    0.023567
   122  H    0.021434
   123  H    0.024509
   124  H    0.030870
   125  H   -0.035309
   126  O   -0.271141
   127  H   -0.034073
   128  H   -0.033423
   129  H   -0.038424
   130  H   -0.039914
   131  H   -0.034982
   132  O   -0.270950
   133  H   -0.044660
   134  O   -0.297607
   135  H   -0.028989
   136  H   -0.027089
   137  H   -0.028274
   138  H   -0.035404
   139  H   -0.043860
   140  O   -0.296739
   141  O   -0.282835
   142  C    0.129915
   143  O   -0.282175
   144  C    0.133008
   145  O   -0.281402
   146  C    0.133041
   147  O   -0.282405
   148  C    0.132044
   149  H    0.029634
   150  H    0.032437
   151  H    0.026953
   152  H    0.032625
   153  H    0.026478
   154  H    0.026695
   155  H    0.031907
   156  H    0.027318
   157  H    0.026069
   158  H    0.032222
   159  H    0.027639
   160  H    0.025588
   161  C    0.134552
   162  C    0.127395
   163  H   -0.038477
   164  C    0.129399
   165  C    0.134686
   166  H    0.035600
   167  H    0.027098
   168  H    0.028190
   169  H    0.034069
   170  H    0.026132
   171  H    0.028976
   172  H    0.027669
   173  H    0.041201
   174  H    0.012952
   175  H    0.008099
   176  H    0.032581
   177  H    0.040055
 Sum of Mulliken atomic charges =   0.00000
 Mulliken charges with hydrogens summed into heavy atoms:
              1
     1  C   -0.299052
     2  C    0.097285
     3  C    0.042330
     4  C    0.044366
     5  C    0.099238
     6  C    0.094831
     7  C    0.041406
     8  C    0.041351
     9  C    0.096258
    10  C   -0.030385
    11  C    0.090811
    12  C    0.019245
    13  C   -0.073866
    14  C   -0.070503
    15  C    0.020282
    16  C    0.081106
    17  C   -0.031489
    18  C   -0.024222
    19  C    0.094573
    20  C    0.017997
    21  C   -0.071572
    22  C   -0.074865
    23  C    0.028282
    24  C    0.087036
    25  C   -0.030204
    26  N   -0.284487
    27  N   -0.285165
    28  N   -0.275522
    29  N   -0.276327
    30  C   -0.009472
    31  C   -0.009310
    32  C    0.091220
    33  C    0.085070
    34  C    0.079611
    35  C    0.013031
    36  C    0.079968
    37  C    0.017063
    38  C    0.000471
    39  C   -0.042852
    40  C    0.117859
    41  C    0.013830
    42  C    0.016216
    43  C    0.003302
    44  C   -0.041477
    45  C    0.119990
    46  C    0.010336
    47  C    0.018036
    48  C    0.062666
    49  C   -0.026679
    50  C    0.138611
    51  C    0.014869
    52  C    0.040010
    53  C    0.065675
    54  C   -0.026446
    55  C    0.139851
    56  C    0.012828
    57  C    0.038783
    58  C    0.039851
    59  C   -0.047899
    60  C    0.119931
    61  C   -0.042293
    62  C    0.153211
    63  C    0.013749
    64  C   -0.043698
    65  C    0.116952
    66  C    0.008107
    67  C    0.004223
    68  C    0.020294
    69  C    0.005046
    70  C    0.117422
    71  C   -0.044949
    72  C   -0.008930
    73  C    0.035835
    74  C   -0.047883
    75  C    0.119991
    76  C   -0.044525
    77  C    0.152065
    90  O   -0.282285
    91  C    0.209349
    92  O   -0.284821
    93  C    0.207819
    94  O   -0.284236
    95  O   -0.281837
    96  C    0.210710
    97  C    0.210029
   126  O   -0.271141
   132  O   -0.270950
   134  O   -0.297607
   140  O   -0.296739
   141  O   -0.282835
   142  C    0.218939
   143  O   -0.282175
   144  C    0.218457
   145  O   -0.281402
   146  C    0.218334
   147  O   -0.282405
   148  C    0.217841
   161  C    0.223729
   162  C    0.209217
   164  C    0.210135
   165  C    0.225573
 Sum of Mulliken charges with hydrogens summed into heavy atoms =   0.00000
 Electronic spatial extent (au):  <R**2>=         123579.1564
 Charge=              0.0000 electrons
 Dipole moment (field-independent basis, Debye):
    X=             -1.3726    Y=              1.2995    Z=             -3.0282  Tot=              3.5696
 Quadrupole moment (field-independent basis, Debye-Ang):
   XX=           -496.1105   YY=           -540.4904   ZZ=           -534.2249
   XY=             10.1345   XZ=              9.8275   YZ=              1.2004
 Traceless Quadrupole moment (field-independent basis, Debye-Ang):
   XX=             27.4981   YY=            -16.8818   ZZ=            -10.6163
   XY=             10.1345   XZ=              9.8275   YZ=              1.2004
 Octapole moment (field-independent basis, Debye-Ang**2):
  XXX=            130.2160  YYY=            181.9801  ZZZ=            -28.8758  XYY=           -245.3255
  XXY=             -5.7795  XXZ=            -58.0745  XZZ=             58.1775  YZZ=            130.7691
  YYZ=           -123.6179  XYZ=            -25.7989
 Hexadecapole moment (field-independent basis, Debye-Ang**3):
 XXXX=         -63603.0465 YYYY=         -63944.8534 ZZZZ=         -25052.3960 XXXY=            610.3503
 XXXZ=            363.9103 YYYX=             57.1893 YYYZ=           1224.7202 ZZZX=              6.0517
 ZZZY=           -160.8916 XXYY=         -20938.3505 XXZZ=         -13269.3996 YYZZ=         -13709.6143
 XXYZ=           -500.3841 YYXZ=           -414.0685 ZZXY=            257.1359
 N-N= 1.925286732240D+04 E-N=-4.876596966399D+04  KE= 4.378266796742D+03
 Leave Link  601 at Mon Feb  2 21:57:33 2015, MaxMem= 2147483648 cpu:      87.6
 (Enter /opt/g09/l9999.exe)
 1\1\GINC-CHPC-SCANDIUM\SP\RB3LYP\CC-pVDZ\C85H76N4O12\JARVIST\02-Feb-20
 15\0\\#p sp B3LYP/cc-pVDZ\\Auto Spiro; and yes I said yes I will Yes.\
 \0,1\C,0,0.018671,-0.040829,0.127087\C,0,0.567933,-1.095786,1.095021\C
 ,0,0.381753,-0.686472,2.430244\C,0,-0.283059,0.61786,2.435947\C,0,-0.5
 0554,1.019291,1.103837\C,0,1.057614,0.506655,-0.859427\C,0,0.631934,0.
 305198,-2.186787\C,0,-0.671467,-0.360807,-2.16914\C,0,-1.049998,-0.583
 014,-0.830734\C,0,2.267295,1.118325,-0.571558\C,0,3.083668,1.564717,-1
 .629862\C,0,2.656915,1.360832,-2.95791\C,0,1.446865,0.731122,-3.238215
 \C,0,-0.692107,1.451741,3.478945\C,0,-1.30588,2.669103,3.188501\C,0,-1
 .536547,3.066395,1.857722\C,0,-1.126049,2.221344,0.807172\C,0,1.177516
 ,-2.300436,0.787225\C,0,1.609817,-3.143935,1.830767\C,0,1.418262,-2.73
 5771,3.166174\C,0,0.817698,-1.515163,3.466405\C,0,-1.521897,-0.770423,
 -3.199212\C,0,-2.72314,-1.401755,-2.887536\C,0,-3.104331,-1.623339,-1.
 549341\C,0,-2.250132,-1.198891,-0.51189\N,0,4.321891,2.209053,-1.37921
 \N,0,-2.165596,4.305122,1.559073\N,0,2.208054,-4.390875,1.528574\N,0,-
 4.341305,-2.253435,-1.265127\C,0,-5.488106,-1.905679,-2.033945\C,0,1.6
 83569,-5.169813,0.457672\C,0,-4.491068,-3.124264,-0.152919\C,0,3.20573
 2,-4.955549,2.369252\C,0,4.52002,2.986779,-0.202098\C,0,5.442413,1.912
 856,-2.20791\C,0,-3.146707,4.852298,2.433772\C,0,-1.618145,5.123731,0.
 52944\C,0,-3.13973,6.207472,2.777589\C,0,-4.123009,6.748435,3.609961\C
 ,0,-5.125177,5.926897,4.133534\C,0,-5.133979,4.564079,3.802461\C,0,-4.
 167601,4.037776,2.957851\C,0,5.695531,2.877598,0.546052\C,0,5.910354,3
 .669486,1.676962\C,0,4.930084,4.575221,2.09168\C,0,3.741672,4.681211,1
 .354299\C,0,3.54358,3.907555,0.219891\C,0,6.22492,2.934564,-2.779616\C
 ,0,7.355891,2.627222,-3.544899\C,0,7.707589,1.29581,-3.780681\C,0,6.91
 9404,0.268377,-3.241794\C,0,5.816492,0.581756,-2.461037\C,0,-2.433144,
 5.704659,-0.460782\C,0,-1.886348,6.549529,-1.433635\C,0,-0.513145,6.80
 5132,-1.455446\C,0,0.314549,6.21055,-0.491621\C,0,-0.239685,5.395524,0
 .484932\C,0,0.329523,-5.494231,0.401222\C,0,-0.217245,-6.239075,-0.648
 042\C,0,0.629316,-6.69484,-1.660888\C,0,1.999543,-6.39278,-1.625354\C,
 0,2.526702,-5.625146,-0.58917\C,0,4.245921,-4.169895,2.880133\C,0,5.23
 0088,-4.719861,3.702669\C,0,5.204607,-6.085563,4.007752\C,0,4.176721,-
 6.882153,3.487532\C,0,3.186892,-6.323421,2.689034\C,0,-3.485452,-4.052
 088,0.177395\C,0,-3.642128,-4.914292,1.252385\C,0,-4.816642,-4.895855,
 2.019705\C,0,-5.826913,-3.987732,1.693911\C,0,-5.654154,-3.105507,0.62
 3182\C,0,-5.915363,-0.582852,-2.128355\C,0,-7.02666,-0.208561,-2.88987
 1\C,0,-7.747549,-1.199535,-3.558642\C,0,-7.345353,-2.542143,-3.477248\
 C,0,-6.219784,-2.897935,-2.737853\H,0,-2.537358,-1.353474,0.523281\H,0
 ,1.324077,-2.602741,-0.244759\H,0,1.738455,-3.390455,3.969618\H,0,0.67
 6473,-1.228759,4.505758\H,0,-0.522103,1.171259,4.515483\H,0,-1.609291,
 3.325948,3.996762\H,0,-1.250034,-0.616355,-4.240674\H,0,-3.381286,-1.7
 36944,-3.682654\H,0,1.142756,0.588888,-4.272362\H,0,3.288624,1.70026,-
 3.772436\H,0,-1.29459,2.519649,-0.223128\H,0,2.588815,1.253783,0.45576
 6\O,0,-4.872482,-5.799036,3.04807\C,0,-6.026922,-5.799055,3.868008\O,0
 ,6.124025,-6.730398,4.793175\C,0,7.185344,-5.966664,5.336464\O,0,-6.12
 9882,6.346108,4.96451\O,0,5.029078,5.394254,3.183977\C,0,6.209939,5.32
 3756,3.962825\C,0,-6.161399,7.713972,5.330206\H,0,-5.920294,3.935737,4
 .209628\H,0,-4.193828,2.982834,2.703143\H,0,6.460673,2.172097,0.238474
 \H,0,-4.085186,7.80579,3.846647\H,0,-2.361854,6.854554,2.385404\H,0,2.
 990272,5.392829,1.683565\H,0,2.6216,4.008839,-0.344143\H,0,-6.441301,-
 2.396137,0.387943\H,0,-6.745563,-3.942129,2.26822\H,0,-2.866965,-5.629
 276,1.51253\H,0,-2.577079,-4.091712,-0.415125\H,0,6.016698,-4.076848,4
 .081484\H,0,4.287871,-3.114409,2.631058\H,0,4.16337,-7.939603,3.733732
 \H,0,2.389128,-6.950507,2.303639\H,0,6.8164,-5.16833,5.995249\H,0,7.80
 9082,-5.519646,4.550036\H,0,7.789781,-6.663401,5.920978\H,0,7.100057,5
 .586786,3.374876\H,0,6.350927,4.324294,4.396818\H,0,6.083427,6.050215,
 4.768099\H,0,-7.027987,7.831173,5.984111\H,0,-6.279171,8.366042,4.4538
 \H,0,-5.25476,8.009608,5.875887\H,0,-6.933602,-6.034788,3.293521\H,0,-
 6.16588,-4.833252,4.372922\H,0,-5.864679,-6.576338,4.617529\H,0,2.6172
 66,-6.755235,-2.437551\O,0,3.834778,-5.263337,-0.501132\H,0,-1.277682,
 -6.460596,-0.650771\H,0,-0.316433,-5.139468,1.198977\H,0,-5.352095,0.1
 75653,-1.592831\H,0,-7.317096,0.833931,-2.93678\H,0,-7.925737,-3.27603
 4,-4.0224\O,0,-5.747724,-4.170117,-2.638291\H,0,-2.567338,6.978117,-2.
 158791\O,0,-3.79737,5.532396,-0.481557\H,0,1.379509,6.418644,-0.513086
 \H,0,0.398572,4.949879,1.242175\H,0,5.219937,-0.21401,-2.025186\H,0,7.
 202182,-0.762513,-3.4286\H,0,7.926175,3.457255,-3.943845\O,0,5.963551,
 4.266504,-2.560628\O,0,0.230172,-7.440141,-2.734226\C,0,-1.147073,-7.7
 6069,-2.846208\O,0,8.785564,0.89892,-4.520513\C,0,9.616434,1.901896,-5
 .080811\O,0,0.111167,7.606364,-2.36916\C,0,-0.68528,8.237791,-3.357816
 \O,0,-8.857882,-0.975807,-4.323503\C,0,-9.321814,0.358345,-4.450077\H,
 0,-1.245795,-8.337891,-3.767683\H,0,-1.76733,-6.857298,-2.914269\H,0,-
 1.490766,-8.369253,-1.999155\H,0,-10.201994,0.309851,-5.094027\H,0,-8.
 567025,1.006126,-4.915514\H,0,-9.606965,0.780976,-3.477472\H,0,0.00286
 1,8.829026,-3.965055\H,0,-1.435575,8.902123,-2.908616\H,0,-1.193743,7.
 50373,-3.997228\H,0,10.409047,1.37238,-5.612958\H,0,10.062379,2.537658
 ,-4.304324\H,0,9.064968,2.534929,-5.788942\C,0,-6.463969,-5.208745,-3.
 285791\C,0,-4.24861,4.221527,-0.826962\H,0,6.838817,3.559754,2.225886\
 C,0,4.788037,4.777477,-3.192016\C,0,4.734458,-5.730092,-1.493255\H,0,5
 .714487,-5.342006,-1.210393\H,0,4.467313,-5.354201,-2.489754\H,0,4.770
 771,-6.82691,-1.519214\H,0,-5.923899,-6.129137,-3.056824\H,0,-6.490852
 ,-5.062976,-4.373877\H,0,-7.491365,-5.286473,-2.907155\H,0,-5.339942,4
 .263513,-0.805384\H,0,-3.899104,3.469656,-0.112248\H,0,-3.912531,3.948
 363,-1.836472\H,0,4.866285,4.692478,-4.284623\H,0,4.728907,5.831601,-2
 .912867\H,0,3.885057,4.260764,-2.85156\\Version=EM64L-G09RevA.02\State
 =1-A\HF=-4406.6083515\RMSD=4.630e-09\Dipole=-0.5400031,0.5112473,-1.19
 13681\Quadrupole=20.4441693,-12.5512207,-7.8929486,7.5347163,7.3064999
 ,0.8924601\PG=C01 [X(C85H76N4O12)]\\@


 A MAN IS EXACTLY AS GREAT AS THE TIDE SURGING
 BENEATH HIM.      - BISMARCK
 Job cpu time:  0 days 11 hours 20 minutes 35.7 seconds.
 File lengths (MBytes):  RWF=   1716 Int=      0 D2E=      0 Chk=    112 Scr=      1
 Normal termination of Gaussian 09 at Mon Feb  2 21:57:34 2015.
