 Entering Gaussian System, Link 0=g09
 Input=sp_11_B3LYP_cc-pVDZ.com
 Output=sp_11_B3LYP_cc-pVDZ.log
 Initial command:
 /opt/g09/l1.exe /home/jarvist/2014-07_SPIRO/b3lyp-631gs_opt/delta_scf/neutral/Gau-43400.inp -scrdir=/home/jarvist/2014-07_SPIRO/b3lyp-631gs_opt/delta_scf/neutral/
 Default is to use a total of   8 processors:
                                8 via shared-memory
                                1 via Linda
 Entering Link 1 = /opt/g09/l1.exe PID=     43402.
  
 Copyright (c) 1988,1990,1992,1993,1995,1998,2003,2009, Gaussian, Inc.
                  All Rights Reserved.
  
 This is part of the Gaussian(R) 09 program.  It is based on
 the Gaussian(R) 03 system (copyright 2003, Gaussian, Inc.),
 the Gaussian(R) 98 system (copyright 1998, Gaussian, Inc.),
 the Gaussian(R) 94 system (copyright 1995, Gaussian, Inc.),
 the Gaussian 92(TM) system (copyright 1992, Gaussian, Inc.),
 the Gaussian 90(TM) system (copyright 1990, Gaussian, Inc.),
 the Gaussian 88(TM) system (copyright 1988, Gaussian, Inc.),
 the Gaussian 86(TM) system (copyright 1986, Carnegie Mellon
 University), and the Gaussian 82(TM) system (copyright 1983,
 Carnegie Mellon University). Gaussian is a federally registered
 trademark of Gaussian, Inc.
  
 This software contains proprietary and confidential information,
 including trade secrets, belonging to Gaussian, Inc.
  
 This software is provided under written license and may be
 used, copied, transmitted, or stored only in accord with that
 written license.
  
 The following legend is applicable only to US Government
 contracts under FAR:
  
                    RESTRICTED RIGHTS LEGEND
  
 Use, reproduction and disclosure by the US Government is
 subject to restrictions as set forth in subparagraphs (a)
 and (c) of the Commercial Computer Software - Restricted
 Rights clause in FAR 52.227-19.
  
 Gaussian, Inc.
 340 Quinnipiac St., Bldg. 40, Wallingford CT 06492
  
  
 ---------------------------------------------------------------
 Warning -- This program may not be used in any manner that
 competes with the business of Gaussian, Inc. or will provide
 assistance to any competitor of Gaussian, Inc.  The licensee
 of this program is prohibited from giving any competitor of
 Gaussian, Inc. access to this program.  By using this program,
 the user acknowledges that Gaussian, Inc. is engaged in the
 business of creating and licensing software in the field of
 computational chemistry and represents and warrants to the
 licensee that it is not a competitor of Gaussian, Inc. and that
 it will not use this program in any manner prohibited above.
 ---------------------------------------------------------------
  

 Cite this work as:
 Gaussian 09, Revision A.02,
 M. J. Frisch, G. W. Trucks, H. B. Schlegel, G. E. Scuseria, 
 M. A. Robb, J. R. Cheeseman, G. Scalmani, V. Barone, B. Mennucci, 
 G. A. Petersson, H. Nakatsuji, M. Caricato, X. Li, H. P. Hratchian, 
 A. F. Izmaylov, J. Bloino, G. Zheng, J. L. Sonnenberg, M. Hada, 
 M. Ehara, K. Toyota, R. Fukuda, J. Hasegawa, M. Ishida, T. Nakajima, 
 Y. Honda, O. Kitao, H. Nakai, T. Vreven, J. A. Montgomery, Jr., 
 J. E. Peralta, F. Ogliaro, M. Bearpark, J. J. Heyd, E. Brothers, 
 K. N. Kudin, V. N. Staroverov, R. Kobayashi, J. Normand, 
 K. Raghavachari, A. Rendell, J. C. Burant, S. S. Iyengar, J. Tomasi, 
 M. Cossi, N. Rega, J. M. Millam, M. Klene, J. E. Knox, J. B. Cross, 
 V. Bakken, C. Adamo, J. Jaramillo, R. Gomperts, R. E. Stratmann, 
 O. Yazyev, A. J. Austin, R. Cammi, C. Pomelli, J. W. Ochterski, 
 R. L. Martin, K. Morokuma, V. G. Zakrzewski, G. A. Voth, 
 P. Salvador, J. J. Dannenberg, S. Dapprich, A. D. Daniels, 
 O. Farkas, J. B. Foresman, J. V. Ortiz, J. Cioslowski, 
 and D. J. Fox, Gaussian, Inc., Wallingford CT, 2009.
 
 ******************************************
 Gaussian 09:  EM64L-G09RevA.02 11-Jun-2009
                 2-Feb-2015 
 ******************************************
 %mem=16GB
 %nprocs=24
 Will use up to   24 processors via shared memory.
 Default route:  MaxDisk=100GB
 -------------------
 #p sp B3LYP/cc-pVDZ
 -------------------
 1/38=1/1;
 2/12=2,17=6,18=5,40=1/2;
 3/5=16,11=2,16=1,25=1,30=1,74=-5/1,2,3;
 4//1;
 5/5=2,38=5/2;
 6/7=2,8=2,9=2,10=2,28=1/1;
 99/5=1,9=1/99;
 Leave Link    1 at Mon Feb  2 21:57:34 2015, MaxMem= 2147483648 cpu:       1.5
 (Enter /opt/g09/l101.exe)
 ------------------------------------------
 Auto Spiro; and yes I said yes I will Yes.
 ------------------------------------------
 Symbolic Z-matrix:
 Charge =  0 Multiplicity = 1
 C                    -0.0331    0.06075  -0.00181 
 C                    -0.82036   0.96281   0.95644 
 C                    -0.53893   0.62678   2.29528 
 C                     0.42737  -0.47295   2.31233 
 C                     0.73717  -0.82578   0.98399 
 C                    -0.91892  -0.72771  -0.97428 
 C                    -0.57363  -0.4321   -2.3077 
 C                     0.53233   0.52691  -2.30705 
 C                     0.86575   0.8349   -0.97345 
 C                    -1.94576  -1.6081   -0.6737 
 C                    -2.65108  -2.22891  -1.72373 
 C                    -2.29982  -1.93804  -3.05664 
 C                    -1.27544  -1.04149  -3.3505 
 C                     1.03624  -1.16176   3.36416 
 C                     1.9313   -2.19186   3.08469 
 C                     2.24713  -2.54049   1.75673 
 C                     1.638    -1.8385    0.69749 
 C                    -1.71195   1.97408   0.63811 
 C                    -2.34091   2.69172   1.67505 
 C                    -2.05531   2.35807   3.01378 
 C                    -1.16874   1.32984   3.32523 
 C                     1.24435   1.12557  -3.34945 
 C                     2.26754   2.02304  -3.05457 
 C                     2.60773   2.32525  -1.72147 
 C                     1.89224   1.71601  -0.67204 
 N                    -3.705    -3.13496  -1.44404 
 N                     3.16663  -3.58558   1.48866 
 N                    -3.24723   3.73893   1.37305 
 N                     3.66217   3.23344  -1.4447 
 C                     4.85852   3.18705  -2.21476 
 C                    -2.9791    4.6294    0.29504 
 C                     3.54454   4.17504  -0.38623 
 C                    -4.42019   3.92645   2.15598 
 C                    -3.58996  -4.06387  -0.37278 
 C                    -4.87805  -3.13477  -2.25027 
 C                     4.31535  -3.76056   2.30999 
 C                     2.93872  -4.48007   0.40519 
 C                     4.69828  -5.03285   2.74974 
 C                     5.83738  -5.21401   3.53757 
 C                     6.60416  -4.10853   3.92059 
 C                     6.22158  -2.82838   3.49367 
 C                     5.10196  -2.65834   2.69188 
 C                    -4.66835  -4.30774   0.48536 
 C                    -4.57378  -5.24062   1.52056 
 C                    -3.37656  -5.93313   1.72901 
 C                    -2.28618  -5.68531   0.88214 
 C                    -2.3938   -4.77303  -0.15833 
 C                    -5.43574  -4.33229  -2.71199 
 C                    -6.59871  -4.33769  -3.48574 
 C                    -7.2123   -3.12909  -3.83201 
 C                    -6.65393  -1.92336  -3.38255 
 C                    -5.51146  -1.92694  -2.59509 
 C                     3.978    -4.83929  -0.46008 
 C                     3.76806  -5.73573  -1.51046 
 C                     2.49453  -6.27283  -1.72562 
 C                     1.44408  -5.90966  -0.86975 
 C                     1.66498  -5.03516   0.1852 
 C                    -1.70243   5.17209   0.1096 
 C                    -1.43373   6.04201  -0.9498 
 C                    -2.4568    6.40327  -1.83368 
 C                    -3.74171   5.87314  -1.64755 
 C                    -3.99597   4.99189  -0.60599 
 C                    -5.21706   2.83881   2.53275 
 C                    -6.36574   3.01764   3.30668 
 C                    -6.75168   4.30453   3.69715 
 C                    -5.96607   5.401     3.31372 
 C                    -4.81306   5.21381   2.56456 
 C                     2.3405    4.87178  -0.17205 
 C                     2.229     5.79831   0.85517 
 C                     3.32266   6.07502   1.68897 
 C                     4.5266    5.39456   1.48157 
 C                     4.62563   4.44638   0.46059 
 C                     5.47947   1.96688  -2.50487 
 C                     6.6465    1.91314  -3.27031 
 C                     7.22811   3.09555  -3.74027 
 C                     6.61908   4.32396  -3.44408 
 C                     5.44706   4.36781  -2.70238 
 H                     2.15253   1.93727   0.35842 
 H                    -1.93201   2.2177   -0.39654 
 H                    -2.53418   2.91853   3.81003 
 H                    -0.96282   1.09558   4.36678 
 H                     0.80849  -0.91429   4.39804 
 H                     2.39415  -2.74094   3.89817 
 H                     0.99968   0.91069  -4.38674 
 H                     2.81655   2.5021   -3.85888 
 H                    -1.02248  -0.83574  -4.38765 
 H                    -2.83949  -2.42605  -3.8617 
 H                     1.88091  -2.09349  -0.32929 
 H                    -2.21507  -1.81987   0.35641 
 O                     3.11029   7.01565   2.65927 
 C                     4.17954   7.31773   3.53861 
 O                    -7.86094   4.59702   4.44329 
 C                    -8.69348   3.52447   4.84775 
 O                     7.72986  -4.16681   4.69644 
 O                    -3.16886  -6.86066   2.713 
 C                    -4.23683  -7.13974   3.60102 
 C                     8.15209  -5.43605   5.16349 
 H                     6.82909  -1.97907   3.79099 
 H                     4.82381  -1.66405   2.35675 
 H                    -5.598    -3.76692   0.33827 
 H                    -5.43341  -5.40365   2.16081 
 H                     6.10287  -6.21617   3.85484 
 H                     4.10202  -5.89509   2.46806 
 H                    -1.36531  -6.23596   1.0496 
 H                    -1.5454   -4.59928  -0.81289 
 H                     5.56114   3.91506   0.31716 
 H                     5.38917   5.57835   2.11212 
 H                     1.30081   6.33605   1.02471 
 H                     1.48793   4.67427  -0.81434 
 H                    -6.95418   2.14937   3.58121 
 H                    -4.93365   1.83812   2.22177 
 H                    -6.27201   6.39411   3.62816 
 H                    -4.20685   6.06961   2.28492 
 H                    -8.15439   2.81004   5.48493 
 H                    -9.11281   2.9887    3.98522 
 H                    -9.5065    3.97443   5.42101 
 H                    -5.11212  -7.53853   3.07007 
 H                    -4.53766  -6.24742   4.1668 
 H                    -3.86208  -7.89535   4.29428 
 H                     9.05223  -5.25503   5.75426 
 H                     8.39482  -6.11394   4.33367 
 H                     7.39104  -5.90803   5.79977 
 H                     5.04777   7.71924   2.99826 
 H                     4.49261   6.43586   4.11391 
 H                     3.79973   8.0779    4.22401 
 H                    -4.52534   6.15515  -2.34402 
 H                    -4.99173   4.57853  -0.47964 
 H                    -0.43164   6.44067  -1.06194 
 H                    -0.90542   4.90545   0.79683 
 H                     5.04195   1.04572  -2.13273 
 H                     7.09517   0.94809  -3.4771 
 H                     7.07603   5.23391  -3.82087 
 H                     4.97782   5.32333  -2.48965 
 H                     4.59973  -5.99227  -2.15697 
 H                     4.96701  -4.41859  -0.30717 
 H                     0.46251  -6.34076  -1.04255 
 H                     0.84649  -4.7693    0.84697 
 H                    -5.09625  -0.98832  -2.2416 
 H                    -7.14372  -0.99238  -3.65106 
 H                    -7.00242  -5.28642  -3.82106 
 H                    -4.9588   -5.27396  -2.45863 
 O                    -2.30937   7.25315  -2.89474 
 C                    -1.02737   7.81094  -3.12874 
 O                    -8.34489  -3.01554  -4.59126 
 C                    -8.94344  -4.20432  -5.0768 
 O                     2.17355  -7.1499   -2.72501 
 C                     3.19523  -7.53278  -3.62882 
 O                     8.37248   3.16191  -4.48709 
 C                     9.02916   1.94812  -4.80874 
 H                    -1.13157   8.44234  -4.01328 
 H                    -0.27687   7.03341  -3.32529 
 H                    -0.69241   8.4264   -2.28282 
 H                     9.90281   2.22668  -5.40127 
 H                     8.38608   1.28415  -5.40242 
 H                     9.35904   1.4143   -3.9071 
 H                     2.72836  -8.22049  -4.33666 
 H                     4.01948  -8.04685  -3.11554 
 H                     3.59732  -6.66887  -4.1753 
 H                    -9.81911  -3.88889  -5.64749 
 H                    -9.26381  -4.86157  -4.25679 
 H                    -8.2634   -4.76082  -5.7361 
 
 NAtoms=    161 NQM=    161 NQMF=      0 NMic=      0 NMicF=      0 NTot=    161.
                    Isotopes and Nuclear Properties:
 (Nuclear quadrupole moments (NQMom) in fm**2, nuclear magnetic moments (NMagM)
  in nuclear magnetons)

  Atom         1           2           3           4           5           6           7           8           9          10
 IAtWgt=          12          12          12          12          12          12          12          12          12          12
 AtmWgt=  12.0000000  12.0000000  12.0000000  12.0000000  12.0000000  12.0000000  12.0000000  12.0000000  12.0000000  12.0000000
 NucSpn=           0           0           0           0           0           0           0           0           0           0
 AtZEff=   0.0000000   0.0000000   0.0000000   0.0000000   0.0000000   0.0000000   0.0000000   0.0000000   0.0000000   0.0000000
 NQMom=    0.0000000   0.0000000   0.0000000   0.0000000   0.0000000   0.0000000   0.0000000   0.0000000   0.0000000   0.0000000
 NMagM=    0.0000000   0.0000000   0.0000000   0.0000000   0.0000000   0.0000000   0.0000000   0.0000000   0.0000000   0.0000000

  Atom        11          12          13          14          15          16          17          18          19          20
 IAtWgt=          12          12          12          12          12          12          12          12          12          12
 AtmWgt=  12.0000000  12.0000000  12.0000000  12.0000000  12.0000000  12.0000000  12.0000000  12.0000000  12.0000000  12.0000000
 NucSpn=           0           0           0           0           0           0           0           0           0           0
 AtZEff=   0.0000000   0.0000000   0.0000000   0.0000000   0.0000000   0.0000000   0.0000000   0.0000000   0.0000000   0.0000000
 NQMom=    0.0000000   0.0000000   0.0000000   0.0000000   0.0000000   0.0000000   0.0000000   0.0000000   0.0000000   0.0000000
 NMagM=    0.0000000   0.0000000   0.0000000   0.0000000   0.0000000   0.0000000   0.0000000   0.0000000   0.0000000   0.0000000

  Atom        21          22          23          24          25          26          27          28          29          30
 IAtWgt=          12          12          12          12          12          14          14          14          14          12
 AtmWgt=  12.0000000  12.0000000  12.0000000  12.0000000  12.0000000  14.0030740  14.0030740  14.0030740  14.0030740  12.0000000
 NucSpn=           0           0           0           0           0           2           2           2           2           0
 AtZEff=   0.0000000   0.0000000   0.0000000   0.0000000   0.0000000   0.0000000   0.0000000   0.0000000   0.0000000   0.0000000
 NQMom=    0.0000000   0.0000000   0.0000000   0.0000000   0.0000000   2.0440000   2.0440000   2.0440000   2.0440000   0.0000000
 NMagM=    0.0000000   0.0000000   0.0000000   0.0000000   0.0000000   0.4037610   0.4037610   0.4037610   0.4037610   0.0000000

  Atom        31          32          33          34          35          36          37          38          39          40
 IAtWgt=          12          12          12          12          12          12          12          12          12          12
 AtmWgt=  12.0000000  12.0000000  12.0000000  12.0000000  12.0000000  12.0000000  12.0000000  12.0000000  12.0000000  12.0000000
 NucSpn=           0           0           0           0           0           0           0           0           0           0
 AtZEff=   0.0000000   0.0000000   0.0000000   0.0000000   0.0000000   0.0000000   0.0000000   0.0000000   0.0000000   0.0000000
 NQMom=    0.0000000   0.0000000   0.0000000   0.0000000   0.0000000   0.0000000   0.0000000   0.0000000   0.0000000   0.0000000
 NMagM=    0.0000000   0.0000000   0.0000000   0.0000000   0.0000000   0.0000000   0.0000000   0.0000000   0.0000000   0.0000000

  Atom        41          42          43          44          45          46          47          48          49          50
 IAtWgt=          12          12          12          12          12          12          12          12          12          12
 AtmWgt=  12.0000000  12.0000000  12.0000000  12.0000000  12.0000000  12.0000000  12.0000000  12.0000000  12.0000000  12.0000000
 NucSpn=           0           0           0           0           0           0           0           0           0           0
 AtZEff=   0.0000000   0.0000000   0.0000000   0.0000000   0.0000000   0.0000000   0.0000000   0.0000000   0.0000000   0.0000000
 NQMom=    0.0000000   0.0000000   0.0000000   0.0000000   0.0000000   0.0000000   0.0000000   0.0000000   0.0000000   0.0000000
 NMagM=    0.0000000   0.0000000   0.0000000   0.0000000   0.0000000   0.0000000   0.0000000   0.0000000   0.0000000   0.0000000

  Atom        51          52          53          54          55          56          57          58          59          60
 IAtWgt=          12          12          12          12          12          12          12          12          12          12
 AtmWgt=  12.0000000  12.0000000  12.0000000  12.0000000  12.0000000  12.0000000  12.0000000  12.0000000  12.0000000  12.0000000
 NucSpn=           0           0           0           0           0           0           0           0           0           0
 AtZEff=   0.0000000   0.0000000   0.0000000   0.0000000   0.0000000   0.0000000   0.0000000   0.0000000   0.0000000   0.0000000
 NQMom=    0.0000000   0.0000000   0.0000000   0.0000000   0.0000000   0.0000000   0.0000000   0.0000000   0.0000000   0.0000000
 NMagM=    0.0000000   0.0000000   0.0000000   0.0000000   0.0000000   0.0000000   0.0000000   0.0000000   0.0000000   0.0000000

  Atom        61          62          63          64          65          66          67          68          69          70
 IAtWgt=          12          12          12          12          12          12          12          12          12          12
 AtmWgt=  12.0000000  12.0000000  12.0000000  12.0000000  12.0000000  12.0000000  12.0000000  12.0000000  12.0000000  12.0000000
 NucSpn=           0           0           0           0           0           0           0           0           0           0
 AtZEff=   0.0000000   0.0000000   0.0000000   0.0000000   0.0000000   0.0000000   0.0000000   0.0000000   0.0000000   0.0000000
 NQMom=    0.0000000   0.0000000   0.0000000   0.0000000   0.0000000   0.0000000   0.0000000   0.0000000   0.0000000   0.0000000
 NMagM=    0.0000000   0.0000000   0.0000000   0.0000000   0.0000000   0.0000000   0.0000000   0.0000000   0.0000000   0.0000000

  Atom        71          72          73          74          75          76          77          78          79          80
 IAtWgt=          12          12          12          12          12          12          12           1           1           1
 AtmWgt=  12.0000000  12.0000000  12.0000000  12.0000000  12.0000000  12.0000000  12.0000000   1.0078250   1.0078250   1.0078250
 NucSpn=           0           0           0           0           0           0           0           1           1           1
 AtZEff=   0.0000000   0.0000000   0.0000000   0.0000000   0.0000000   0.0000000   0.0000000   0.0000000   0.0000000   0.0000000
 NQMom=    0.0000000   0.0000000   0.0000000   0.0000000   0.0000000   0.0000000   0.0000000   0.0000000   0.0000000   0.0000000
 NMagM=    0.0000000   0.0000000   0.0000000   0.0000000   0.0000000   0.0000000   0.0000000   2.7928460   2.7928460   2.7928460

  Atom        81          82          83          84          85          86          87          88          89          90
 IAtWgt=           1           1           1           1           1           1           1           1           1          16
 AtmWgt=   1.0078250   1.0078250   1.0078250   1.0078250   1.0078250   1.0078250   1.0078250   1.0078250   1.0078250  15.9949146
 NucSpn=           1           1           1           1           1           1           1           1           1           0
 AtZEff=   0.0000000   0.0000000   0.0000000   0.0000000   0.0000000   0.0000000   0.0000000   0.0000000   0.0000000   0.0000000
 NQMom=    0.0000000   0.0000000   0.0000000   0.0000000   0.0000000   0.0000000   0.0000000   0.0000000   0.0000000   0.0000000
 NMagM=    2.7928460   2.7928460   2.7928460   2.7928460   2.7928460   2.7928460   2.7928460   2.7928460   2.7928460   0.0000000

  Atom        91          92          93          94          95          96          97          98          99         100
 IAtWgt=          12          16          12          16          16          12          12           1           1           1
 AtmWgt=  12.0000000  15.9949146  12.0000000  15.9949146  15.9949146  12.0000000  12.0000000   1.0078250   1.0078250   1.0078250
 NucSpn=           0           0           0           0           0           0           0           1           1           1
 AtZEff=   0.0000000   0.0000000   0.0000000   0.0000000   0.0000000   0.0000000   0.0000000   0.0000000   0.0000000   0.0000000
 NQMom=    0.0000000   0.0000000   0.0000000   0.0000000   0.0000000   0.0000000   0.0000000   0.0000000   0.0000000   0.0000000
 NMagM=    0.0000000   0.0000000   0.0000000   0.0000000   0.0000000   0.0000000   0.0000000   2.7928460   2.7928460   2.7928460

  Atom       101         102         103         104         105         106         107         108         109         110
 IAtWgt=           1           1           1           1           1           1           1           1           1           1
 AtmWgt=   1.0078250   1.0078250   1.0078250   1.0078250   1.0078250   1.0078250   1.0078250   1.0078250   1.0078250   1.0078250
 NucSpn=           1           1           1           1           1           1           1           1           1           1
 AtZEff=   0.0000000   0.0000000   0.0000000   0.0000000   0.0000000   0.0000000   0.0000000   0.0000000   0.0000000   0.0000000
 NQMom=    0.0000000   0.0000000   0.0000000   0.0000000   0.0000000   0.0000000   0.0000000   0.0000000   0.0000000   0.0000000
 NMagM=    2.7928460   2.7928460   2.7928460   2.7928460   2.7928460   2.7928460   2.7928460   2.7928460   2.7928460   2.7928460

  Atom       111         112         113         114         115         116         117         118         119         120
 IAtWgt=           1           1           1           1           1           1           1           1           1           1
 AtmWgt=   1.0078250   1.0078250   1.0078250   1.0078250   1.0078250   1.0078250   1.0078250   1.0078250   1.0078250   1.0078250
 NucSpn=           1           1           1           1           1           1           1           1           1           1
 AtZEff=   0.0000000   0.0000000   0.0000000   0.0000000   0.0000000   0.0000000   0.0000000   0.0000000   0.0000000   0.0000000
 NQMom=    0.0000000   0.0000000   0.0000000   0.0000000   0.0000000   0.0000000   0.0000000   0.0000000   0.0000000   0.0000000
 NMagM=    2.7928460   2.7928460   2.7928460   2.7928460   2.7928460   2.7928460   2.7928460   2.7928460   2.7928460   2.7928460

  Atom       121         122         123         124         125         126         127         128         129         130
 IAtWgt=           1           1           1           1           1           1           1           1           1           1
 AtmWgt=   1.0078250   1.0078250   1.0078250   1.0078250   1.0078250   1.0078250   1.0078250   1.0078250   1.0078250   1.0078250
 NucSpn=           1           1           1           1           1           1           1           1           1           1
 AtZEff=   0.0000000   0.0000000   0.0000000   0.0000000   0.0000000   0.0000000   0.0000000   0.0000000   0.0000000   0.0000000
 NQMom=    0.0000000   0.0000000   0.0000000   0.0000000   0.0000000   0.0000000   0.0000000   0.0000000   0.0000000   0.0000000
 NMagM=    2.7928460   2.7928460   2.7928460   2.7928460   2.7928460   2.7928460   2.7928460   2.7928460   2.7928460   2.7928460

  Atom       131         132         133         134         135         136         137         138         139         140
 IAtWgt=           1           1           1           1           1           1           1           1           1           1
 AtmWgt=   1.0078250   1.0078250   1.0078250   1.0078250   1.0078250   1.0078250   1.0078250   1.0078250   1.0078250   1.0078250
 NucSpn=           1           1           1           1           1           1           1           1           1           1
 AtZEff=   0.0000000   0.0000000   0.0000000   0.0000000   0.0000000   0.0000000   0.0000000   0.0000000   0.0000000   0.0000000
 NQMom=    0.0000000   0.0000000   0.0000000   0.0000000   0.0000000   0.0000000   0.0000000   0.0000000   0.0000000   0.0000000
 NMagM=    2.7928460   2.7928460   2.7928460   2.7928460   2.7928460   2.7928460   2.7928460   2.7928460   2.7928460   2.7928460

  Atom       141         142         143         144         145         146         147         148         149         150
 IAtWgt=           1          16          12          16          12          16          12          16          12           1
 AtmWgt=   1.0078250  15.9949146  12.0000000  15.9949146  12.0000000  15.9949146  12.0000000  15.9949146  12.0000000   1.0078250
 NucSpn=           1           0           0           0           0           0           0           0           0           1
 AtZEff=   0.0000000   0.0000000   0.0000000   0.0000000   0.0000000   0.0000000   0.0000000   0.0000000   0.0000000   0.0000000
 NQMom=    0.0000000   0.0000000   0.0000000   0.0000000   0.0000000   0.0000000   0.0000000   0.0000000   0.0000000   0.0000000
 NMagM=    2.7928460   0.0000000   0.0000000   0.0000000   0.0000000   0.0000000   0.0000000   0.0000000   0.0000000   2.7928460

  Atom       151         152         153         154         155         156         157         158         159         160
 IAtWgt=           1           1           1           1           1           1           1           1           1           1
 AtmWgt=   1.0078250   1.0078250   1.0078250   1.0078250   1.0078250   1.0078250   1.0078250   1.0078250   1.0078250   1.0078250
 NucSpn=           1           1           1           1           1           1           1           1           1           1
 AtZEff=   0.0000000   0.0000000   0.0000000   0.0000000   0.0000000   0.0000000   0.0000000   0.0000000   0.0000000   0.0000000
 NQMom=    0.0000000   0.0000000   0.0000000   0.0000000   0.0000000   0.0000000   0.0000000   0.0000000   0.0000000   0.0000000
 NMagM=    2.7928460   2.7928460   2.7928460   2.7928460   2.7928460   2.7928460   2.7928460   2.7928460   2.7928460   2.7928460

  Atom       161
 IAtWgt=           1
 AtmWgt=   1.0078250
 NucSpn=           1
 AtZEff=   0.0000000
 NQMom=    0.0000000
 NMagM=    2.7928460
 Leave Link  101 at Mon Feb  2 21:57:34 2015, MaxMem= 2147483648 cpu:       2.9
 (Enter /opt/g09/l202.exe)
 Stoichiometry    C81H68N4O8
 Framework group  C1[X(C81H68N4O8)]
 Deg. of freedom   477
 Full point group                 C1      NOp   1
 Largest Abelian subgroup         C1      NOp   1
 Largest concise Abelian subgroup C1      NOp   1
                         Standard orientation:                         
 ---------------------------------------------------------------------
 Center     Atomic      Atomic             Coordinates (Angstroms)
 Number     Number       Type             X           Y           Z
 ---------------------------------------------------------------------
      1          6           0       -0.033100    0.060747   -0.001812
      2          6           0       -0.820358    0.962808    0.956441
      3          6           0       -0.538927    0.626776    2.295284
      4          6           0        0.427370   -0.472949    2.312332
      5          6           0        0.737170   -0.825783    0.983991
      6          6           0       -0.918918   -0.727713   -0.974280
      7          6           0       -0.573627   -0.432104   -2.307696
      8          6           0        0.532333    0.526910   -2.307051
      9          6           0        0.865748    0.834899   -0.973448
     10          6           0       -1.945755   -1.608096   -0.673696
     11          6           0       -2.651084   -2.228906   -1.723731
     12          6           0       -2.299820   -1.938042   -3.056637
     13          6           0       -1.275444   -1.041486   -3.350504
     14          6           0        1.036241   -1.161764    3.364158
     15          6           0        1.931299   -2.191856    3.084695
     16          6           0        2.247127   -2.540492    1.756728
     17          6           0        1.638003   -1.838496    0.697493
     18          6           0       -1.711954    1.974079    0.638108
     19          6           0       -2.340905    2.691719    1.675054
     20          6           0       -2.055305    2.358070    3.013783
     21          6           0       -1.168742    1.329841    3.325229
     22          6           0        1.244348    1.125571   -3.349454
     23          6           0        2.267542    2.023036   -3.054567
     24          6           0        2.607727    2.325245   -1.721472
     25          6           0        1.892244    1.716007   -0.672038
     26          7           0       -3.705003   -3.134960   -1.444040
     27          7           0        3.166629   -3.585582    1.488657
     28          7           0       -3.247234    3.738930    1.373045
     29          7           0        3.662172    3.233442   -1.444701
     30          6           0        4.858523    3.187046   -2.214758
     31          6           0       -2.979103    4.629396    0.295036
     32          6           0        3.544537    4.175040   -0.386226
     33          6           0       -4.420187    3.926445    2.155976
     34          6           0       -3.589957   -4.063873   -0.372783
     35          6           0       -4.878048   -3.134774   -2.250270
     36          6           0        4.315349   -3.760559    2.309992
     37          6           0        2.938720   -4.480068    0.405189
     38          6           0        4.698282   -5.032854    2.749736
     39          6           0        5.837375   -5.214010    3.537569
     40          6           0        6.604161   -4.108534    3.920588
     41          6           0        6.221583   -2.828378    3.493665
     42          6           0        5.101962   -2.658337    2.691881
     43          6           0       -4.668352   -4.307737    0.485357
     44          6           0       -4.573783   -5.240618    1.520556
     45          6           0       -3.376556   -5.933133    1.729010
     46          6           0       -2.286184   -5.685311    0.882139
     47          6           0       -2.393802   -4.773025   -0.158332
     48          6           0       -5.435745   -4.332286   -2.711990
     49          6           0       -6.598708   -4.337691   -3.485735
     50          6           0       -7.212304   -3.129087   -3.832014
     51          6           0       -6.653933   -1.923360   -3.382554
     52          6           0       -5.511458   -1.926943   -2.595091
     53          6           0        3.978003   -4.839286   -0.460084
     54          6           0        3.768058   -5.735734   -1.510459
     55          6           0        2.494527   -6.272825   -1.725621
     56          6           0        1.444075   -5.909656   -0.869754
     57          6           0        1.664978   -5.035162    0.185204
     58          6           0       -1.702432    5.172087    0.109602
     59          6           0       -1.433725    6.042011   -0.949801
     60          6           0       -2.456796    6.403267   -1.833680
     61          6           0       -3.741713    5.873136   -1.647554
     62          6           0       -3.995970    4.991886   -0.605989
     63          6           0       -5.217063    2.838806    2.532745
     64          6           0       -6.365743    3.017644    3.306675
     65          6           0       -6.751683    4.304528    3.697147
     66          6           0       -5.966069    5.400997    3.313722
     67          6           0       -4.813063    5.213809    2.564561
     68          6           0        2.340496    4.871780   -0.172045
     69          6           0        2.229003    5.798305    0.855166
     70          6           0        3.322660    6.075023    1.688972
     71          6           0        4.526601    5.394563    1.481573
     72          6           0        4.625628    4.446378    0.460586
     73          6           0        5.479466    1.966882   -2.504869
     74          6           0        6.646503    1.913144   -3.270310
     75          6           0        7.228113    3.095552   -3.740271
     76          6           0        6.619077    4.323960   -3.444080
     77          6           0        5.447061    4.367811   -2.702376
     78          1           0        2.152528    1.937271    0.358419
     79          1           0       -1.932013    2.217704   -0.396538
     80          1           0       -2.534179    2.918533    3.810034
     81          1           0       -0.962821    1.095580    4.366778
     82          1           0        0.808492   -0.914287    4.398044
     83          1           0        2.394153   -2.740943    3.898165
     84          1           0        0.999684    0.910690   -4.386743
     85          1           0        2.816553    2.502100   -3.858884
     86          1           0       -1.022483   -0.835740   -4.387651
     87          1           0       -2.839488   -2.426052   -3.861703
     88          1           0        1.880913   -2.093488   -0.329289
     89          1           0       -2.215068   -1.819865    0.356411
     90          8           0        3.110292    7.015651    2.659269
     91          6           0        4.179540    7.317725    3.538605
     92          8           0       -7.860942    4.597023    4.443285
     93          6           0       -8.693482    3.524466    4.847750
     94          8           0        7.729856   -4.166813    4.696438
     95          8           0       -3.168862   -6.860661    2.712999
     96          6           0       -4.236833   -7.139737    3.601022
     97          6           0        8.152090   -5.436045    5.163494
     98          1           0        6.829091   -1.979072    3.790987
     99          1           0        4.823808   -1.664049    2.356752
    100          1           0       -5.598000   -3.766916    0.338265
    101          1           0       -5.433407   -5.403652    2.160812
    102          1           0        6.102873   -6.216167    3.854839
    103          1           0        4.102019   -5.895092    2.468064
    104          1           0       -1.365313   -6.235964    1.049599
    105          1           0       -1.545398   -4.599280   -0.812894
    106          1           0        5.561138    3.915059    0.317157
    107          1           0        5.389174    5.578353    2.112122
    108          1           0        1.300814    6.336053    1.024710
    109          1           0        1.487925    4.674269   -0.814338
    110          1           0       -6.954178    2.149374    3.581209
    111          1           0       -4.933649    1.838121    2.221766
    112          1           0       -6.272006    6.394109    3.628157
    113          1           0       -4.206847    6.069605    2.284916
    114          1           0       -8.154390    2.810042    5.484925
    115          1           0       -9.112815    2.988700    3.985218
    116          1           0       -9.506497    3.974427    5.421005
    117          1           0       -5.112124   -7.538531    3.070073
    118          1           0       -4.537656   -6.247422    4.166802
    119          1           0       -3.862078   -7.895346    4.294277
    120          1           0        9.052235   -5.255028    5.754257
    121          1           0        8.394823   -6.113944    4.333666
    122          1           0        7.391038   -5.908026    5.799765
    123          1           0        5.047771    7.719239    2.998255
    124          1           0        4.492610    6.435864    4.113909
    125          1           0        3.799726    8.077902    4.224011
    126          1           0       -4.525337    6.155154   -2.344023
    127          1           0       -4.991725    4.578530   -0.479636
    128          1           0       -0.431644    6.440671   -1.061943
    129          1           0       -0.905423    4.905451    0.796831
    130          1           0        5.041948    1.045722   -2.132726
    131          1           0        7.095172    0.948089   -3.477096
    132          1           0        7.076033    5.233905   -3.820867
    133          1           0        4.977816    5.323329   -2.489647
    134          1           0        4.599726   -5.992272   -2.156969
    135          1           0        4.967010   -4.418590   -0.307173
    136          1           0        0.462512   -6.340757   -1.042546
    137          1           0        0.846489   -4.769304    0.846969
    138          1           0       -5.096254   -0.988321   -2.241595
    139          1           0       -7.143716   -0.992377   -3.651059
    140          1           0       -7.002419   -5.286424   -3.821058
    141          1           0       -4.958795   -5.273963   -2.458628
    142          8           0       -2.309366    7.253154   -2.894740
    143          6           0       -1.027366    7.810942   -3.128740
    144          8           0       -8.344892   -3.015541   -4.591262
    145          6           0       -8.943435   -4.204321   -5.076802
    146          8           0        2.173547   -7.149903   -2.725012
    147          6           0        3.195226   -7.532780   -3.628820
    148          8           0        8.372478    3.161908   -4.487088
    149          6           0        9.029158    1.948121   -4.808743
    150          1           0       -1.131575    8.442339   -4.013275
    151          1           0       -0.276865    7.033406   -3.325294
    152          1           0       -0.692414    8.426399   -2.282825
    153          1           0        9.902805    2.226683   -5.401273
    154          1           0        8.386083    1.284147   -5.402421
    155          1           0        9.359037    1.414298   -3.907102
    156          1           0        2.728360   -8.220490   -4.336659
    157          1           0        4.019481   -8.046853   -3.115541
    158          1           0        3.597315   -6.668866   -4.175298
    159          1           0       -9.819106   -3.888887   -5.647487
    160          1           0       -9.263811   -4.861565   -4.256792
    161          1           0       -8.263395   -4.760823   -5.736096
 ---------------------------------------------------------------------
 Rotational constants (GHZ):      0.0159016      0.0147981      0.0105363
 Leave Link  202 at Mon Feb  2 21:57:34 2015, MaxMem= 2147483648 cpu:       1.4
 (Enter /opt/g09/l301.exe)
 Standard basis: CC-pVDZ (5D, 7F)
 Ernie: Thresh=  0.10000D-02 Tol=  0.10000D-05 Strict=F.
 Ernie:  186 primitive shells out of 2386 were deleted.
 There are  1642 symmetry adapted basis functions of A   symmetry.
 Integral buffers will be    131072 words long.
 Raffenetti 2 integral format.
 Two-electron integral symmetry is turned on.
  1642 basis functions,  3545 primitive gaussians,  1735 cartesian basis functions
   323 alpha electrons      323 beta electrons
       nuclear repulsion energy     16195.2780742256 Hartrees.
 IExCor=  402 DFT=T Ex+Corr=B3LYP ExCW=0 ScaHFX=  0.200000
 ScaDFX=  0.800000  0.720000  1.000000  0.810000 ScalE2=  1.000000  1.000000
 IRadAn=      0 IRanWt=     -1 IRanGd=            0 ICorTp=0
 NAtoms=  161 NActive=  161 NUniq=  161 SFac= 7.50D-01 NAtFMM=   80 NAOKFM=T Big=T
 Leave Link  301 at Mon Feb  2 21:57:34 2015, MaxMem= 2147483648 cpu:       1.4
 (Enter /opt/g09/l302.exe)
 NPDir=0 NMtPBC=     1 NCelOv=     1 NCel=       1 NClECP=     1 NCelD=      1
         NCelK=      1 NCelE2=     1 NClLst=     1 CellRange=     0.0.
 One-electron integrals computed using PRISM.
 NBasis=  1642 RedAO= T  NBF=  1642
 NBsUse=  1642 1.00D-06 NBFU=  1642
 Precomputing XC quadrature grid using
 IXCGrd= 2 IRadAn=           0 IRanWt=          -1 IRanGd=           0 AccXCQ= 1.00D-10.
 NRdTot=   10550 NPtTot=     1352466 NUsed=     1428422 NTot=     1428454
 NSgBfM=  1209  1212  1235  1251  1256 NAtAll=   161   154.
 Leave Link  302 at Mon Feb  2 21:57:55 2015, MaxMem= 2147483648 cpu:     497.9
 (Enter /opt/g09/l303.exe)
 DipDrv:  MaxL=1.
 Leave Link  303 at Mon Feb  2 21:57:57 2015, MaxMem= 2147483648 cpu:      36.9
 (Enter /opt/g09/l401.exe)
 Harris functional with IExCor=  402 diagonalized for initial guess.
 ExpMin= 1.22D-01 ExpMax= 1.17D+04 ExpMxC= 4.01D+02 IAcc=1 IRadAn=         1 AccDes= 0.00D+00
 HarFok:  IExCor=  402 AccDes= 0.00D+00 IRadAn=         1 IDoV= 1
 ScaDFX=  1.000000  1.000000  1.000000  1.000000
 FoFCou: FMM=F IPFlag=           0 FMFlag=      100000 FMFlg1=        2001
         NFxFlg=           0 DoJE=T BraDBF=F KetDBF=T FulRan=T
         Omega=  0.000000  0.000000  1.000000  0.000000  0.000000 ICntrl=     500 IOpCl=  0
         NMat0=    1 NMatS0=    1 NMatT0=    0 NMatD0=    1 NMtDS0=    0 NMtDT0=    0
         I1Cent=           4 NGrid=           0.
 Petite list used in FoFCou.
 Harris En= -3948.65853405623    
 Initial guess orbital symmetries:
       Occupied  (A) (A) (A) (A) (A) (A) (A) (A) (A) (A) (A) (A)
                 (A) (A) (A) (A) (A) (A) (A) (A) (A) (A) (A) (A)
                 (A) (A) (A) (A) (A) (A) (A) (A) (A) (A) (A) (A)
                 (A) (A) (A) (A) (A) (A) (A) (A) (A) (A) (A) (A)
                 (A) (A) (A) (A) (A) (A) (A) (A) (A) (A) (A) (A)
                 (A) (A) (A) (A) (A) (A) (A) (A) (A) (A) (A) (A)
                 (A) (A) (A) (A) (A) (A) (A) (A) (A) (A) (A) (A)
                 (A) (A) (A) (A) (A) (A) (A) (A) (A) (A) (A) (A)
                 (A) (A) (A) (A) (A) (A) (A) (A) (A) (A) (A) (A)
                 (A) (A) (A) (A) (A) (A) (A) (A) (A) (A) (A) (A)
                 (A) (A) (A) (A) (A) (A) (A) (A) (A) (A) (A) (A)
                 (A) (A) (A) (A) (A) (A) (A) (A) (A) (A) (A) (A)
                 (A) (A) (A) (A) (A) (A) (A) (A) (A) (A) (A) (A)
                 (A) (A) (A) (A) (A) (A) (A) (A) (A) (A) (A) (A)
                 (A) (A) (A) (A) (A) (A) (A) (A) (A) (A) (A) (A)
                 (A) (A) (A) (A) (A) (A) (A) (A) (A) (A) (A) (A)
                 (A) (A) (A) (A) (A) (A) (A) (A) (A) (A) (A) (A)
                 (A) (A) (A) (A) (A) (A) (A) (A) (A) (A) (A) (A)
                 (A) (A) (A) (A) (A) (A) (A) (A) (A) (A) (A) (A)
                 (A) (A) (A) (A) (A) (A) (A) (A) (A) (A) (A) (A)
                 (A) (A) (A) (A) (A) (A) (A) (A) (A) (A) (A) (A)
                 (A) (A) (A) (A) (A) (A) (A) (A) (A) (A) (A) (A)
                 (A) (A) (A) (A) (A) (A) (A) (A) (A) (A) (A) (A)
                 (A) (A) (A) (A) (A) (A) (A) (A) (A) (A) (A) (A)
                 (A) (A) (A) (A) (A) (A) (A) (A) (A) (A) (A) (A)
                 (A) (A) (A) (A) (A) (A) (A) (A) (A) (A) (A) (A)
                 (A) (A) (A) (A) (A) (A) (A) (A) (A) (A) (A)
       Virtual   (A) (A) (A) (A) (A) (A) (A) (A) (A) (A) (A) (A)
                 (A) (A) (A) (A) (A) (A) (A) (A) (A) (A) (A) (A)
                 (A) (A) (A) (A) (A) (A) (A) (A) (A) (A) (A) (A)
                 (A) (A) (A) (A) (A) (A) (A) (A) (A) (A) (A) (A)
                 (A) (A) (A) (A) (A) (A) (A) (A) (A) (A) (A) (A)
                 (A) (A) (A) (A) (A) (A) (A) (A) (A) (A) (A) (A)
                 (A) (A) (A) (A) (A) (A) (A) (A) (A) (A) (A) (A)
                 (A) (A) (A) (A) (A) (A) (A) (A) (A) (A) (A) (A)
                 (A) (A) (A) (A) (A) (A) (A) (A) (A) (A) (A) (A)
                 (A) (A) (A) (A) (A) (A) (A) (A) (A) (A) (A) (A)
                 (A) (A) (A) (A) (A) (A) (A) (A) (A) (A) (A) (A)
                 (A) (A) (A) (A) (A) (A) (A) (A) (A) (A) (A) (A)
                 (A) (A) (A) (A) (A) (A) (A) (A) (A) (A) (A) (A)
                 (A) (A) (A) (A) (A) (A) (A) (A) (A) (A) (A) (A)
                 (A) (A) (A) (A) (A) (A) (A) (A) (A) (A) (A) (A)
                 (A) (A) (A) (A) (A) (A) (A) (A) (A) (A) (A) (A)
                 (A) (A) (A) (A) (A) (A) (A) (A) (A) (A) (A) (A)
                 (A) (A) (A) (A) (A) (A) (A) (A) (A) (A) (A) (A)
                 (A) (A) (A) (A) (A) (A) (A) (A) (A) (A) (A) (A)
                 (A) (A) (A) (A) (A) (A) (A) (A) (A) (A) (A) (A)
                 (A) (A) (A) (A) (A) (A) (A) (A) (A) (A) (A) (A)
                 (A) (A) (A) (A) (A) (A) (A) (A) (A) (A) (A) (A)
                 (A) (A) (A) (A) (A) (A) (A) (A) (A) (A) (A) (A)
                 (A) (A) (A) (A) (A) (A) (A) (A) (A) (A) (A) (A)
                 (A) (A) (A) (A) (A) (A) (A) (A) (A) (A) (A) (A)
                 (A) (A) (A) (A) (A) (A) (A) (A) (A) (A) (A) (A)
                 (A) (A) (A) (A) (A) (A) (A) (A) (A) (A) (A) (A)
                 (A) (A) (A) (A) (A) (A) (A) (A) (A) (A) (A) (A)
                 (A) (A) (A) (A) (A) (A) (A) (A) (A) (A) (A) (A)
                 (A) (A) (A) (A) (A) (A) (A) (A) (A) (A) (A) (A)
                 (A) (A) (A) (A) (A) (A) (A) (A) (A) (A) (A) (A)
                 (A) (A) (A) (A) (A) (A) (A) (A) (A) (A) (A) (A)
                 (A) (A) (A) (A) (A) (A) (A) (A) (A) (A) (A) (A)
                 (A) (A) (A) (A) (A) (A) (A) (A) (A) (A) (A) (A)
                 (A) (A) (A) (A) (A) (A) (A) (A) (A) (A) (A) (A)
                 (A) (A) (A) (A) (A) (A) (A) (A) (A) (A) (A) (A)
                 (A) (A) (A) (A) (A) (A) (A) (A) (A) (A) (A) (A)
                 (A) (A) (A) (A) (A) (A) (A) (A) (A) (A) (A) (A)
                 (A) (A) (A) (A) (A) (A) (A) (A) (A) (A) (A) (A)
                 (A) (A) (A) (A) (A) (A) (A) (A) (A) (A) (A) (A)
                 (A) (A) (A) (A) (A) (A) (A) (A) (A) (A) (A) (A)
                 (A) (A) (A) (A) (A) (A) (A) (A) (A) (A) (A) (A)
                 (A) (A) (A) (A) (A) (A) (A) (A) (A) (A) (A) (A)
                 (A) (A) (A) (A) (A) (A) (A) (A) (A) (A) (A) (A)
                 (A) (A) (A) (A) (A) (A) (A) (A) (A) (A) (A) (A)
                 (A) (A) (A) (A) (A) (A) (A) (A) (A) (A) (A) (A)
                 (A) (A) (A) (A) (A) (A) (A) (A) (A) (A) (A) (A)
                 (A) (A) (A) (A) (A) (A) (A) (A) (A) (A) (A) (A)
                 (A) (A) (A) (A) (A) (A) (A) (A) (A) (A) (A) (A)
                 (A) (A) (A) (A) (A) (A) (A) (A) (A) (A) (A) (A)
                 (A) (A) (A) (A) (A) (A) (A) (A) (A) (A) (A) (A)
                 (A) (A) (A) (A) (A) (A) (A) (A) (A) (A) (A) (A)
                 (A) (A) (A) (A) (A) (A) (A) (A) (A) (A) (A) (A)
                 (A) (A) (A) (A) (A) (A) (A) (A) (A) (A) (A) (A)
                 (A) (A) (A) (A) (A) (A) (A) (A) (A) (A) (A) (A)
                 (A) (A) (A) (A) (A) (A) (A) (A) (A) (A) (A) (A)
                 (A) (A) (A) (A) (A) (A) (A) (A) (A) (A) (A) (A)
                 (A) (A) (A) (A) (A) (A) (A) (A) (A) (A) (A) (A)
                 (A) (A) (A) (A) (A) (A) (A) (A) (A) (A) (A) (A)
                 (A) (A) (A) (A) (A) (A) (A) (A) (A) (A) (A) (A)
                 (A) (A) (A) (A) (A) (A) (A) (A) (A) (A) (A) (A)
                 (A) (A) (A) (A) (A) (A) (A) (A) (A) (A) (A) (A)
                 (A) (A) (A) (A) (A) (A) (A) (A) (A) (A) (A) (A)
                 (A) (A) (A) (A) (A) (A) (A) (A) (A) (A) (A) (A)
                 (A) (A) (A) (A) (A) (A) (A) (A) (A) (A) (A) (A)
                 (A) (A) (A) (A) (A) (A) (A) (A) (A) (A) (A) (A)
                 (A) (A) (A) (A) (A) (A) (A) (A) (A) (A) (A) (A)
                 (A) (A) (A) (A) (A) (A) (A) (A) (A) (A) (A) (A)
                 (A) (A) (A) (A) (A) (A) (A) (A) (A) (A) (A) (A)
                 (A) (A) (A) (A) (A) (A) (A) (A) (A) (A) (A) (A)
                 (A) (A) (A) (A) (A) (A) (A) (A) (A) (A) (A) (A)
                 (A) (A) (A) (A) (A) (A) (A) (A) (A) (A) (A) (A)
                 (A) (A) (A) (A) (A) (A) (A) (A) (A) (A) (A) (A)
                 (A) (A) (A) (A) (A) (A) (A) (A) (A) (A) (A) (A)
                 (A) (A) (A) (A) (A) (A) (A) (A) (A) (A) (A) (A)
                 (A) (A) (A) (A) (A) (A) (A) (A) (A) (A) (A) (A)
                 (A) (A) (A) (A) (A) (A) (A) (A) (A) (A) (A) (A)
                 (A) (A) (A) (A) (A) (A) (A) (A) (A) (A) (A) (A)
                 (A) (A) (A) (A) (A) (A) (A) (A) (A) (A) (A) (A)
                 (A) (A) (A) (A) (A) (A) (A) (A) (A) (A) (A) (A)
                 (A) (A) (A) (A) (A) (A) (A) (A) (A) (A) (A) (A)
                 (A) (A) (A) (A) (A) (A) (A) (A) (A) (A) (A) (A)
                 (A) (A) (A) (A) (A) (A) (A) (A) (A) (A) (A) (A)
                 (A) (A) (A) (A) (A) (A) (A) (A) (A) (A) (A) (A)
                 (A) (A) (A) (A) (A) (A) (A) (A) (A) (A) (A) (A)
                 (A) (A) (A) (A) (A) (A) (A) (A) (A) (A) (A) (A)
                 (A) (A) (A) (A) (A) (A) (A) (A) (A) (A) (A) (A)
                 (A) (A) (A) (A) (A) (A) (A) (A) (A) (A) (A) (A)
                 (A) (A) (A) (A) (A) (A) (A) (A) (A) (A) (A) (A)
                 (A) (A) (A) (A) (A) (A) (A) (A) (A) (A) (A) (A)
                 (A) (A) (A) (A) (A) (A) (A) (A) (A) (A) (A) (A)
                 (A) (A) (A) (A) (A) (A) (A) (A) (A) (A) (A) (A)
                 (A) (A) (A) (A) (A) (A) (A) (A) (A) (A) (A) (A)
                 (A) (A) (A) (A) (A) (A) (A) (A) (A) (A) (A) (A)
                 (A) (A) (A) (A) (A) (A) (A) (A) (A) (A) (A) (A)
                 (A) (A) (A) (A) (A) (A) (A) (A) (A) (A) (A) (A)
                 (A) (A) (A) (A) (A) (A) (A) (A) (A) (A) (A) (A)
                 (A) (A) (A) (A) (A) (A) (A) (A) (A) (A) (A) (A)
                 (A) (A) (A) (A) (A) (A) (A) (A) (A) (A) (A) (A)
                 (A) (A) (A) (A) (A) (A) (A) (A) (A) (A) (A) (A)
                 (A) (A) (A) (A) (A) (A) (A) (A) (A) (A) (A) (A)
                 (A) (A) (A) (A) (A) (A) (A) (A) (A) (A) (A) (A)
                 (A) (A) (A) (A) (A) (A) (A) (A) (A) (A) (A) (A)
                 (A) (A) (A) (A) (A) (A) (A) (A) (A) (A) (A) (A)
                 (A) (A) (A) (A) (A) (A) (A) (A) (A) (A) (A) (A)
                 (A) (A) (A) (A) (A) (A) (A) (A) (A) (A) (A) (A)
                 (A) (A) (A) (A) (A) (A) (A) (A) (A) (A) (A) (A)
                 (A) (A) (A) (A) (A) (A) (A) (A) (A) (A) (A) (A)
                 (A) (A) (A) (A) (A) (A) (A) (A) (A) (A) (A) (A)
                 (A) (A) (A) (A) (A) (A) (A) (A) (A) (A) (A)
 The electronic state of the initial guess is 1-A.
 Leave Link  401 at Mon Feb  2 21:58:18 2015, MaxMem= 2147483648 cpu:     513.3
 (Enter /opt/g09/l502.exe)
 Closed shell SCF:
 Requested convergence on RMS density matrix=1.00D-08 within 128 cycles.
 Requested convergence on MAX density matrix=1.00D-06.
 Requested convergence on             energy=1.00D-06.
 No special actions if energy rises.
 Using DIIS extrapolation, IDIIS=  1040.
 Integral symmetry usage will be decided dynamically.
      1426960 words used for storage of precomputed grid.
 IEnd=    10530557 IEndB=    10530557 NGot=  2147483648 MDV=  2139981692
 LenX=  2139981692 LenY=  2136969732
 Fock matrices will be formed incrementally for  20 cycles.
 Integral accuracy reduced to 1.0D-05 until final iterations.

 Cycle   1  Pass 0  IDiag  1:
 FoFCou: FMM=T IPFlag=           0 FMFlag=      100000 FMFlg1=        2001
         NFxFlg=           0 DoJE=F BraDBF=F KetDBF=F FulRan=T
         Omega=  0.000000  0.000000  1.000000  0.000000  0.000000 ICntrl=       0 IOpCl=  0
         NMat0=    1 NMatS0=    1 NMatT0=    0 NMatD0=    1 NMtDS0=    0 NMtDT0=    0
         I1Cent=           0 NGrid=           0.
 Symmetry not used in FoFCou.
 FMM levels:  10  Number of levels for PrismC:   9
 E= -3946.72878732016    
 DIIS: error= 2.87D-02 at cycle   1 NSaved=   1.
 NSaved= 1 IEnMin= 1 EnMin= -3946.72878732016     IErMin= 1 ErrMin= 2.87D-02
 ErrMax= 2.87D-02 EMaxC= 1.00D-01 BMatC= 1.55D+00 BMatP= 1.55D+00
 IDIUse=3 WtCom= 7.13D-01 WtEn= 2.87D-01
 Coeff-Com:  0.100D+01
 Coeff-En:   0.100D+01
 Coeff:      0.100D+01
 Gap=     0.150 Goal=   None    Shift=    0.000
 GapD=    0.150 DampG=1.000 DampE=0.500 DampFc=0.5000 IDamp=-1.
 Damping current iteration by 5.00D-01
 RMSDP=2.18D-03 MaxDP=1.98D-01              OVMax= 1.67D-01

 Cycle   2  Pass 0  IDiag  1:
 RMSU=  7.30D-04    CP:  9.59D-01
 E= -3947.58458341965     Delta-E=       -0.855796099484 Rises=F Damp=T
 DIIS: error= 4.22D-03 at cycle   2 NSaved=   2.
 NSaved= 2 IEnMin= 2 EnMin= -3947.58458341965     IErMin= 2 ErrMin= 4.22D-03
 ErrMax= 4.22D-03 EMaxC= 1.00D-01 BMatC= 7.99D-02 BMatP= 1.55D+00
 IDIUse=3 WtCom= 9.58D-01 WtEn= 4.22D-02
 Coeff-Com:  0.122D-01 0.988D+00
 Coeff-En:   0.000D+00 0.100D+01
 Coeff:      0.116D-01 0.988D+00
 Gap=     0.130 Goal=   None    Shift=    0.000
 RMSDP=6.72D-04 MaxDP=9.95D-02 DE=-8.56D-01 OVMax= 1.23D-01

 Cycle   3  Pass 0  IDiag  1:
 RMSU=  4.07D-04    CP:  9.34D-01  1.27D+00
 E= -3948.43849607002     Delta-E=       -0.853912650378 Rises=F Damp=F
 DIIS: error= 5.79D-03 at cycle   3 NSaved=   3.
 NSaved= 3 IEnMin= 3 EnMin= -3948.43849607002     IErMin= 2 ErrMin= 4.22D-03
 ErrMax= 5.79D-03 EMaxC= 1.00D-01 BMatC= 7.96D-02 BMatP= 7.99D-02
 IDIUse=3 WtCom= 9.42D-01 WtEn= 5.79D-02
 Coeff-Com: -0.336D-01 0.516D+00 0.518D+00
 Coeff-En:   0.000D+00 0.000D+00 0.100D+01
 Coeff:     -0.316D-01 0.486D+00 0.545D+00
 Gap=     0.139 Goal=   None    Shift=    0.000
 RMSDP=3.02D-04 MaxDP=3.01D-02 DE=-8.54D-01 OVMax= 7.45D-02

 Cycle   4  Pass 0  IDiag  1:
 RMSU=  1.70D-04    CP:  9.35D-01  1.26D+00  6.83D-01
 E= -3948.48755737489     Delta-E=       -0.049061304861 Rises=F Damp=F
 DIIS: error= 3.18D-03 at cycle   4 NSaved=   4.
 NSaved= 4 IEnMin= 4 EnMin= -3948.48755737489     IErMin= 4 ErrMin= 3.18D-03
 ErrMax= 3.18D-03 EMaxC= 1.00D-01 BMatC= 2.70D-02 BMatP= 7.96D-02
 IDIUse=3 WtCom= 9.68D-01 WtEn= 3.18D-02
 Coeff-Com: -0.203D-01 0.169D+00 0.377D+00 0.475D+00
 Coeff-En:   0.000D+00 0.000D+00 0.301D+00 0.699D+00
 Coeff:     -0.197D-01 0.163D+00 0.374D+00 0.482D+00
 Gap=     0.130 Goal=   None    Shift=    0.000
 RMSDP=1.47D-04 MaxDP=1.12D-02 DE=-4.91D-02 OVMax= 3.60D-02

 Cycle   5  Pass 0  IDiag  1:
 RMSU=  4.89D-05    CP:  9.36D-01  1.25D+00  7.71D-01  5.02D-01
 E= -3948.51216135531     Delta-E=       -0.024603980422 Rises=F Damp=F
 DIIS: error= 1.14D-03 at cycle   5 NSaved=   5.
 NSaved= 5 IEnMin= 5 EnMin= -3948.51216135531     IErMin= 5 ErrMin= 1.14D-03
 ErrMax= 1.14D-03 EMaxC= 1.00D-01 BMatC= 3.23D-03 BMatP= 2.70D-02
 IDIUse=3 WtCom= 9.89D-01 WtEn= 1.14D-02
 Coeff-Com: -0.960D-02 0.543D-01 0.197D+00 0.327D+00 0.431D+00
 Coeff-En:   0.000D+00 0.000D+00 0.000D+00 0.992D-01 0.901D+00
 Coeff:     -0.949D-02 0.537D-01 0.195D+00 0.324D+00 0.437D+00
 Gap=     0.130 Goal=   None    Shift=    0.000
 RMSDP=4.88D-05 MaxDP=5.49D-03 DE=-2.46D-02 OVMax= 1.12D-02

 Cycle   6  Pass 0  IDiag  1:
 RMSU=  1.88D-05    CP:  9.35D-01  1.26D+00  7.64D-01  5.68D-01  4.64D-01
 E= -3948.51559829344     Delta-E=       -0.003436938128 Rises=F Damp=F
 DIIS: error= 4.25D-04 at cycle   6 NSaved=   6.
 NSaved= 6 IEnMin= 6 EnMin= -3948.51559829344     IErMin= 6 ErrMin= 4.25D-04
 ErrMax= 4.25D-04 EMaxC= 1.00D-01 BMatC= 2.53D-04 BMatP= 3.23D-03
 IDIUse=3 WtCom= 9.96D-01 WtEn= 4.25D-03
 Coeff-Com: -0.211D-02 0.499D-02 0.530D-01 0.105D+00 0.256D+00 0.583D+00
 Coeff-En:   0.000D+00 0.000D+00 0.000D+00 0.000D+00 0.609D-01 0.939D+00
 Coeff:     -0.210D-02 0.497D-02 0.528D-01 0.105D+00 0.256D+00 0.584D+00
 Gap=     0.130 Goal=   None    Shift=    0.000
 RMSDP=1.53D-05 MaxDP=1.09D-03 DE=-3.44D-03 OVMax= 3.70D-03

 Cycle   7  Pass 0  IDiag  1:
 RMSU=  6.95D-06    CP:  9.35D-01  1.26D+00  7.70D-01  5.66D-01  5.63D-01
                    CP:  6.85D-01
 E= -3948.51585978180     Delta-E=       -0.000261488363 Rises=F Damp=F
 DIIS: error= 1.75D-04 at cycle   7 NSaved=   7.
 NSaved= 7 IEnMin= 7 EnMin= -3948.51585978180     IErMin= 7 ErrMin= 1.75D-04
 ErrMax= 1.75D-04 EMaxC= 1.00D-01 BMatC= 4.47D-05 BMatP= 2.53D-04
 IDIUse=3 WtCom= 9.98D-01 WtEn= 1.75D-03
 Coeff-Com: -0.757D-03-0.407D-03 0.226D-01 0.480D-01 0.142D+00 0.391D+00
 Coeff-Com:  0.397D+00
 Coeff-En:   0.000D+00 0.000D+00 0.000D+00 0.000D+00 0.000D+00 0.547D-01
 Coeff-En:   0.945D+00
 Coeff:     -0.756D-03-0.407D-03 0.225D-01 0.479D-01 0.142D+00 0.391D+00
 Coeff:      0.398D+00
 Gap=     0.130 Goal=   None    Shift=    0.000
 RMSDP=6.18D-06 MaxDP=4.87D-04 DE=-2.61D-04 OVMax= 1.76D-03

 Initial convergence to 1.0D-05 achieved.  Increase integral accuracy.
 Cycle   8  Pass 1  IDiag  1:
 E= -3948.51543668784     Delta-E=        0.000423093963 Rises=F Damp=F
 DIIS: error= 3.44D-04 at cycle   1 NSaved=   1.
 NSaved= 1 IEnMin= 1 EnMin= -3948.51543668784     IErMin= 1 ErrMin= 3.44D-04
 ErrMax= 3.44D-04 EMaxC= 1.00D-01 BMatC= 1.03D-04 BMatP= 1.03D-04
 IDIUse=3 WtCom= 9.97D-01 WtEn= 3.44D-03
 Coeff-Com:  0.100D+01
 Coeff-En:   0.100D+01
 Coeff:      0.100D+01
 Gap=     0.130 Goal=   None    Shift=    0.000
 RMSDP=6.18D-06 MaxDP=4.87D-04 DE= 4.23D-04 OVMax= 1.51D-03

 Cycle   9  Pass 1  IDiag  1:
 RMSU=  1.07D-04    CP:  9.99D-01
 E= -3948.51550869154     Delta-E=       -0.000072003706 Rises=F Damp=F
 DIIS: error= 1.33D-04 at cycle   2 NSaved=   2.
 NSaved= 2 IEnMin= 2 EnMin= -3948.51550869154     IErMin= 2 ErrMin= 1.33D-04
 ErrMax= 1.33D-04 EMaxC= 1.00D-01 BMatC= 1.74D-05 BMatP= 1.03D-04
 IDIUse=3 WtCom= 9.99D-01 WtEn= 1.33D-03
 Coeff-Com:  0.179D+00 0.821D+00
 Coeff-En:   0.000D+00 0.100D+01
 Coeff:      0.178D+00 0.822D+00
 Gap=     0.130 Goal=   None    Shift=    0.000
 RMSDP=9.26D-06 MaxDP=1.42D-03 DE=-7.20D-05 OVMax= 2.75D-03

 Cycle  10  Pass 1  IDiag  1:
 RMSU=  6.51D-06    CP:  9.99D-01  1.01D+00
 E= -3948.51545572711     Delta-E=        0.000052964431 Rises=F Damp=F
 DIIS: error= 2.69D-04 at cycle   3 NSaved=   3.
 NSaved= 3 IEnMin= 2 EnMin= -3948.51550869154     IErMin= 2 ErrMin= 1.33D-04
 ErrMax= 2.69D-04 EMaxC= 1.00D-01 BMatC= 6.35D-05 BMatP= 1.74D-05
 IDIUse=3 WtCom= 3.79D-01 WtEn= 6.21D-01
 Coeff-Com: -0.230D-02 0.658D+00 0.344D+00
 Coeff-En:   0.000D+00 0.719D+00 0.281D+00
 Coeff:     -0.870D-03 0.696D+00 0.305D+00
 Gap=     0.130 Goal=   None    Shift=    0.000
 RMSDP=5.24D-06 MaxDP=6.90D-04 DE= 5.30D-05 OVMax= 1.61D-03

 Cycle  11  Pass 1  IDiag  1:
 RMSU=  4.89D-07    CP:  9.99D-01  1.01D+00  4.39D-01
 E= -3948.51552693734     Delta-E=       -0.000071210230 Rises=F Damp=F
 DIIS: error= 2.89D-05 at cycle   4 NSaved=   4.
 NSaved= 4 IEnMin= 4 EnMin= -3948.51552693734     IErMin= 4 ErrMin= 2.89D-05
 ErrMax= 2.89D-05 EMaxC= 1.00D-01 BMatC= 1.51D-06 BMatP= 1.74D-05
 IDIUse=1 WtCom= 1.00D+00 WtEn= 0.00D+00
 Coeff-Com: -0.349D-02 0.421D+00 0.162D+00 0.421D+00
 Coeff:     -0.349D-02 0.421D+00 0.162D+00 0.421D+00
 Gap=     0.130 Goal=   None    Shift=    0.000
 RMSDP=9.23D-07 MaxDP=1.20D-04 DE=-7.12D-05 OVMax= 2.29D-04

 Cycle  12  Pass 1  IDiag  1:
 RMSU=  1.89D-07    CP:  9.99D-01  1.01D+00  3.47D-01  6.25D-01
 E= -3948.51552861247     Delta-E=       -0.000001675133 Rises=F Damp=F
 DIIS: error= 2.31D-06 at cycle   5 NSaved=   5.
 NSaved= 5 IEnMin= 5 EnMin= -3948.51552861247     IErMin= 5 ErrMin= 2.31D-06
 ErrMax= 2.31D-06 EMaxC= 1.00D-01 BMatC= 1.58D-08 BMatP= 1.51D-06
 IDIUse=1 WtCom= 1.00D+00 WtEn= 0.00D+00
 Coeff-Com: -0.211D-02 0.236D+00 0.866D-01 0.264D+00 0.415D+00
 Coeff:     -0.211D-02 0.236D+00 0.866D-01 0.264D+00 0.415D+00
 Gap=     0.130 Goal=   None    Shift=    0.000
 RMSDP=1.15D-07 MaxDP=1.07D-05 DE=-1.68D-06 OVMax= 2.82D-05

 Cycle  13  Pass 1  IDiag  1:
 RMSU=  6.02D-08    CP:  9.99D-01  1.01D+00  3.46D-01  6.63D-01  7.28D-01
 E= -3948.51552862834     Delta-E=       -0.000000015869 Rises=F Damp=F
 DIIS: error= 8.74D-07 at cycle   6 NSaved=   6.
 NSaved= 6 IEnMin= 6 EnMin= -3948.51552862834     IErMin= 6 ErrMin= 8.74D-07
 ErrMax= 8.74D-07 EMaxC= 1.00D-01 BMatC= 1.93D-09 BMatP= 1.58D-08
 IDIUse=1 WtCom= 1.00D+00 WtEn= 0.00D+00
 Coeff-Com: -0.790D-03 0.845D-01 0.300D-01 0.103D+00 0.273D+00 0.510D+00
 Coeff:     -0.790D-03 0.845D-01 0.300D-01 0.103D+00 0.273D+00 0.510D+00
 Gap=     0.130 Goal=   None    Shift=    0.000
 RMSDP=4.02D-08 MaxDP=3.63D-06 DE=-1.59D-08 OVMax= 1.02D-05

 Cycle  14  Pass 1  IDiag  1:
 RMSU=  2.02D-08    CP:  9.99D-01  1.01D+00  3.46D-01  6.59D-01  7.88D-01
                    CP:  7.33D-01
 E= -3948.51552863053     Delta-E=       -0.000000002183 Rises=F Damp=F
 DIIS: error= 2.20D-07 at cycle   7 NSaved=   7.
 NSaved= 7 IEnMin= 7 EnMin= -3948.51552863053     IErMin= 7 ErrMin= 2.20D-07
 ErrMax= 2.20D-07 EMaxC= 1.00D-01 BMatC= 1.48D-10 BMatP= 1.93D-09
 IDIUse=1 WtCom= 1.00D+00 WtEn= 0.00D+00
 Coeff-Com: -0.115D-03 0.105D-01 0.353D-02 0.147D-01 0.816D-01 0.272D+00
 Coeff-Com:  0.618D+00
 Coeff:     -0.115D-03 0.105D-01 0.353D-02 0.147D-01 0.816D-01 0.272D+00
 Coeff:      0.618D+00
 Gap=     0.130 Goal=   None    Shift=    0.000
 RMSDP=1.06D-08 MaxDP=2.17D-06 DE=-2.18D-09 OVMax= 2.14D-06

 Cycle  15  Pass 1  IDiag  1:
 RMSU=  4.62D-09    CP:  9.99D-01  1.01D+00  3.47D-01  6.61D-01  7.93D-01
                    CP:  7.60D-01  7.46D-01
 E= -3948.51552863069     Delta-E=       -0.000000000160 Rises=F Damp=F
 DIIS: error= 5.84D-08 at cycle   8 NSaved=   8.
 NSaved= 8 IEnMin= 8 EnMin= -3948.51552863069     IErMin= 8 ErrMin= 5.84D-08
 ErrMax= 5.84D-08 EMaxC= 1.00D-01 BMatC= 1.44D-11 BMatP= 1.48D-10
 IDIUse=1 WtCom= 1.00D+00 WtEn= 0.00D+00
 Coeff-Com:  0.241D-04-0.349D-02-0.132D-02-0.340D-02 0.129D-01 0.915D-01
 Coeff-Com:  0.314D+00 0.590D+00
 Coeff:      0.241D-04-0.349D-02-0.132D-02-0.340D-02 0.129D-01 0.915D-01
 Coeff:      0.314D+00 0.590D+00
 Gap=     0.130 Goal=   None    Shift=    0.000
 RMSDP=3.33D-09 MaxDP=2.95D-07 DE=-1.60D-10 OVMax= 6.21D-07

 SCF Done:  E(RB3LYP) =  -3948.51552863     A.U. after   15 cycles
             Convg  =    0.3330D-08             -V/T =  2.0065
 KE= 3.922835388428D+03 PE=-4.157446692006D+04 EE= 1.750783792877D+04
 Leave Link  502 at Mon Feb  2 22:20:28 2015, MaxMem= 2147483648 cpu:   31887.4
 (Enter /opt/g09/l601.exe)
 Copying SCF densities to generalized density rwf, IOpCl= 0 IROHF=0.

 **********************************************************************

            Population analysis using the SCF density.

 **********************************************************************

 Orbital symmetries:
       Occupied  (A) (A) (A) (A) (A) (A) (A) (A) (A) (A) (A) (A)
                 (A) (A) (A) (A) (A) (A) (A) (A) (A) (A) (A) (A)
                 (A) (A) (A) (A) (A) (A) (A) (A) (A) (A) (A) (A)
                 (A) (A) (A) (A) (A) (A) (A) (A) (A) (A) (A) (A)
                 (A) (A) (A) (A) (A) (A) (A) (A) (A) (A) (A) (A)
                 (A) (A) (A) (A) (A) (A) (A) (A) (A) (A) (A) (A)
                 (A) (A) (A) (A) (A) (A) (A) (A) (A) (A) (A) (A)
                 (A) (A) (A) (A) (A) (A) (A) (A) (A) (A) (A) (A)
                 (A) (A) (A) (A) (A) (A) (A) (A) (A) (A) (A) (A)
                 (A) (A) (A) (A) (A) (A) (A) (A) (A) (A) (A) (A)
                 (A) (A) (A) (A) (A) (A) (A) (A) (A) (A) (A) (A)
                 (A) (A) (A) (A) (A) (A) (A) (A) (A) (A) (A) (A)
                 (A) (A) (A) (A) (A) (A) (A) (A) (A) (A) (A) (A)
                 (A) (A) (A) (A) (A) (A) (A) (A) (A) (A) (A) (A)
                 (A) (A) (A) (A) (A) (A) (A) (A) (A) (A) (A) (A)
                 (A) (A) (A) (A) (A) (A) (A) (A) (A) (A) (A) (A)
                 (A) (A) (A) (A) (A) (A) (A) (A) (A) (A) (A) (A)
                 (A) (A) (A) (A) (A) (A) (A) (A) (A) (A) (A) (A)
                 (A) (A) (A) (A) (A) (A) (A) (A) (A) (A) (A) (A)
                 (A) (A) (A) (A) (A) (A) (A) (A) (A) (A) (A) (A)
                 (A) (A) (A) (A) (A) (A) (A) (A) (A) (A) (A) (A)
                 (A) (A) (A) (A) (A) (A) (A) (A) (A) (A) (A) (A)
                 (A) (A) (A) (A) (A) (A) (A) (A) (A) (A) (A) (A)
                 (A) (A) (A) (A) (A) (A) (A) (A) (A) (A) (A) (A)
                 (A) (A) (A) (A) (A) (A) (A) (A) (A) (A) (A) (A)
                 (A) (A) (A) (A) (A) (A) (A) (A) (A) (A) (A) (A)
                 (A) (A) (A) (A) (A) (A) (A) (A) (A) (A) (A)
       Virtual   (A) (A) (A) (A) (A) (A) (A) (A) (A) (A) (A) (A)
                 (A) (A) (A) (A) (A) (A) (A) (A) (A) (A) (A) (A)
                 (A) (A) (A) (A) (A) (A) (A) (A) (A) (A) (A) (A)
                 (A) (A) (A) (A) (A) (A) (A) (A) (A) (A) (A) (A)
                 (A) (A) (A) (A) (A) (A) (A) (A) (A) (A) (A) (A)
                 (A) (A) (A) (A) (A) (A) (A) (A) (A) (A) (A) (A)
                 (A) (A) (A) (A) (A) (A) (A) (A) (A) (A) (A) (A)
                 (A) (A) (A) (A) (A) (A) (A) (A) (A) (A) (A) (A)
                 (A) (A) (A) (A) (A) (A) (A) (A) (A) (A) (A) (A)
                 (A) (A) (A) (A) (A) (A) (A) (A) (A) (A) (A) (A)
                 (A) (A) (A) (A) (A) (A) (A) (A) (A) (A) (A) (A)
                 (A) (A) (A) (A) (A) (A) (A) (A) (A) (A) (A) (A)
                 (A) (A) (A) (A) (A) (A) (A) (A) (A) (A) (A) (A)
                 (A) (A) (A) (A) (A) (A) (A) (A) (A) (A) (A) (A)
                 (A) (A) (A) (A) (A) (A) (A) (A) (A) (A) (A) (A)
                 (A) (A) (A) (A) (A) (A) (A) (A) (A) (A) (A) (A)
                 (A) (A) (A) (A) (A) (A) (A) (A) (A) (A) (A) (A)
                 (A) (A) (A) (A) (A) (A) (A) (A) (A) (A) (A) (A)
                 (A) (A) (A) (A) (A) (A) (A) (A) (A) (A) (A) (A)
                 (A) (A) (A) (A) (A) (A) (A) (A) (A) (A) (A) (A)
                 (A) (A) (A) (A) (A) (A) (A) (A) (A) (A) (A) (A)
                 (A) (A) (A) (A) (A) (A) (A) (A) (A) (A) (A) (A)
                 (A) (A) (A) (A) (A) (A) (A) (A) (A) (A) (A) (A)
                 (A) (A) (A) (A) (A) (A) (A) (A) (A) (A) (A) (A)
                 (A) (A) (A) (A) (A) (A) (A) (A) (A) (A) (A) (A)
                 (A) (A) (A) (A) (A) (A) (A) (A) (A) (A) (A) (A)
                 (A) (A) (A) (A) (A) (A) (A) (A) (A) (A) (A) (A)
                 (A) (A) (A) (A) (A) (A) (A) (A) (A) (A) (A) (A)
                 (A) (A) (A) (A) (A) (A) (A) (A) (A) (A) (A) (A)
                 (A) (A) (A) (A) (A) (A) (A) (A) (A) (A) (A) (A)
                 (A) (A) (A) (A) (A) (A) (A) (A) (A) (A) (A) (A)
                 (A) (A) (A) (A) (A) (A) (A) (A) (A) (A) (A) (A)
                 (A) (A) (A) (A) (A) (A) (A) (A) (A) (A) (A) (A)
                 (A) (A) (A) (A) (A) (A) (A) (A) (A) (A) (A) (A)
                 (A) (A) (A) (A) (A) (A) (A) (A) (A) (A) (A) (A)
                 (A) (A) (A) (A) (A) (A) (A) (A) (A) (A) (A) (A)
                 (A) (A) (A) (A) (A) (A) (A) (A) (A) (A) (A) (A)
                 (A) (A) (A) (A) (A) (A) (A) (A) (A) (A) (A) (A)
                 (A) (A) (A) (A) (A) (A) (A) (A) (A) (A) (A) (A)
                 (A) (A) (A) (A) (A) (A) (A) (A) (A) (A) (A) (A)
                 (A) (A) (A) (A) (A) (A) (A) (A) (A) (A) (A) (A)
                 (A) (A) (A) (A) (A) (A) (A) (A) (A) (A) (A) (A)
                 (A) (A) (A) (A) (A) (A) (A) (A) (A) (A) (A) (A)
                 (A) (A) (A) (A) (A) (A) (A) (A) (A) (A) (A) (A)
                 (A) (A) (A) (A) (A) (A) (A) (A) (A) (A) (A) (A)
                 (A) (A) (A) (A) (A) (A) (A) (A) (A) (A) (A) (A)
                 (A) (A) (A) (A) (A) (A) (A) (A) (A) (A) (A) (A)
                 (A) (A) (A) (A) (A) (A) (A) (A) (A) (A) (A) (A)
                 (A) (A) (A) (A) (A) (A) (A) (A) (A) (A) (A) (A)
                 (A) (A) (A) (A) (A) (A) (A) (A) (A) (A) (A) (A)
                 (A) (A) (A) (A) (A) (A) (A) (A) (A) (A) (A) (A)
                 (A) (A) (A) (A) (A) (A) (A) (A) (A) (A) (A) (A)
                 (A) (A) (A) (A) (A) (A) (A) (A) (A) (A) (A) (A)
                 (A) (A) (A) (A) (A) (A) (A) (A) (A) (A) (A) (A)
                 (A) (A) (A) (A) (A) (A) (A) (A) (A) (A) (A) (A)
                 (A) (A) (A) (A) (A) (A) (A) (A) (A) (A) (A) (A)
                 (A) (A) (A) (A) (A) (A) (A) (A) (A) (A) (A) (A)
                 (A) (A) (A) (A) (A) (A) (A) (A) (A) (A) (A) (A)
                 (A) (A) (A) (A) (A) (A) (A) (A) (A) (A) (A) (A)
                 (A) (A) (A) (A) (A) (A) (A) (A) (A) (A) (A) (A)
                 (A) (A) (A) (A) (A) (A) (A) (A) (A) (A) (A) (A)
                 (A) (A) (A) (A) (A) (A) (A) (A) (A) (A) (A) (A)
                 (A) (A) (A) (A) (A) (A) (A) (A) (A) (A) (A) (A)
                 (A) (A) (A) (A) (A) (A) (A) (A) (A) (A) (A) (A)
                 (A) (A) (A) (A) (A) (A) (A) (A) (A) (A) (A) (A)
                 (A) (A) (A) (A) (A) (A) (A) (A) (A) (A) (A) (A)
                 (A) (A) (A) (A) (A) (A) (A) (A) (A) (A) (A) (A)
                 (A) (A) (A) (A) (A) (A) (A) (A) (A) (A) (A) (A)
                 (A) (A) (A) (A) (A) (A) (A) (A) (A) (A) (A) (A)
                 (A) (A) (A) (A) (A) (A) (A) (A) (A) (A) (A) (A)
                 (A) (A) (A) (A) (A) (A) (A) (A) (A) (A) (A) (A)
                 (A) (A) (A) (A) (A) (A) (A) (A) (A) (A) (A) (A)
                 (A) (A) (A) (A) (A) (A) (A) (A) (A) (A) (A) (A)
                 (A) (A) (A) (A) (A) (A) (A) (A) (A) (A) (A) (A)
                 (A) (A) (A) (A) (A) (A) (A) (A) (A) (A) (A) (A)
                 (A) (A) (A) (A) (A) (A) (A) (A) (A) (A) (A) (A)
                 (A) (A) (A) (A) (A) (A) (A) (A) (A) (A) (A) (A)
                 (A) (A) (A) (A) (A) (A) (A) (A) (A) (A) (A) (A)
                 (A) (A) (A) (A) (A) (A) (A) (A) (A) (A) (A) (A)
                 (A) (A) (A) (A) (A) (A) (A) (A) (A) (A) (A) (A)
                 (A) (A) (A) (A) (A) (A) (A) (A) (A) (A) (A) (A)
                 (A) (A) (A) (A) (A) (A) (A) (A) (A) (A) (A) (A)
                 (A) (A) (A) (A) (A) (A) (A) (A) (A) (A) (A) (A)
                 (A) (A) (A) (A) (A) (A) (A) (A) (A) (A) (A) (A)
                 (A) (A) (A) (A) (A) (A) (A) (A) (A) (A) (A) (A)
                 (A) (A) (A) (A) (A) (A) (A) (A) (A) (A) (A) (A)
                 (A) (A) (A) (A) (A) (A) (A) (A) (A) (A) (A) (A)
                 (A) (A) (A) (A) (A) (A) (A) (A) (A) (A) (A) (A)
                 (A) (A) (A) (A) (A) (A) (A) (A) (A) (A) (A) (A)
                 (A) (A) (A) (A) (A) (A) (A) (A) (A) (A) (A) (A)
                 (A) (A) (A) (A) (A) (A) (A) (A) (A) (A) (A) (A)
                 (A) (A) (A) (A) (A) (A) (A) (A) (A) (A) (A) (A)
                 (A) (A) (A) (A) (A) (A) (A) (A) (A) (A) (A) (A)
                 (A) (A) (A) (A) (A) (A) (A) (A) (A) (A) (A) (A)
                 (A) (A) (A) (A) (A) (A) (A) (A) (A) (A) (A) (A)
                 (A) (A) (A) (A) (A) (A) (A) (A) (A) (A) (A) (A)
                 (A) (A) (A) (A) (A) (A) (A) (A) (A) (A) (A) (A)
                 (A) (A) (A) (A) (A) (A) (A) (A) (A) (A) (A) (A)
                 (A) (A) (A) (A) (A) (A) (A) (A) (A) (A) (A) (A)
                 (A) (A) (A) (A) (A) (A) (A) (A) (A) (A) (A) (A)
                 (A) (A) (A) (A) (A) (A) (A) (A) (A) (A) (A) (A)
                 (A) (A) (A) (A) (A) (A) (A) (A) (A) (A) (A) (A)
                 (A) (A) (A) (A) (A) (A) (A) (A) (A) (A) (A) (A)
                 (A) (A) (A) (A) (A) (A) (A) (A) (A) (A) (A) (A)
                 (A) (A) (A) (A) (A) (A) (A) (A) (A) (A) (A) (A)
                 (A) (A) (A) (A) (A) (A) (A) (A) (A) (A) (A) (A)
                 (A) (A) (A) (A) (A) (A) (A) (A) (A) (A) (A) (A)
                 (A) (A) (A) (A) (A) (A) (A) (A) (A) (A) (A) (A)
                 (A) (A) (A) (A) (A) (A) (A) (A) (A) (A) (A) (A)
                 (A) (A) (A) (A) (A) (A) (A) (A) (A) (A) (A)
 The electronic state is 1-A.
 Alpha  occ. eigenvalues --  -19.16734 -19.16688 -19.16644 -19.16628 -19.16567
 Alpha  occ. eigenvalues --  -19.16547 -19.16462 -19.16336 -14.34876 -14.34838
 Alpha  occ. eigenvalues --  -14.34789 -14.34665 -10.24093 -10.24066 -10.24053
 Alpha  occ. eigenvalues --  -10.24018 -10.24006 -10.23992 -10.23987 -10.23975
 Alpha  occ. eigenvalues --  -10.23927 -10.23906 -10.23895 -10.23873 -10.23837
 Alpha  occ. eigenvalues --  -10.23790 -10.23736 -10.23600 -10.21976 -10.21940
 Alpha  occ. eigenvalues --  -10.21928 -10.21858 -10.21742 -10.21726 -10.21719
 Alpha  occ. eigenvalues --  -10.21670 -10.21646 -10.21639 -10.21514 -10.21418
 Alpha  occ. eigenvalues --  -10.20437 -10.18588 -10.18553 -10.18550 -10.18536
 Alpha  occ. eigenvalues --  -10.18521 -10.18504 -10.18483 -10.18478 -10.18472
 Alpha  occ. eigenvalues --  -10.18454 -10.18454 -10.18448 -10.18440 -10.18433
 Alpha  occ. eigenvalues --  -10.18412 -10.18404 -10.18394 -10.18390 -10.18385
 Alpha  occ. eigenvalues --  -10.18385 -10.18360 -10.18336 -10.18336 -10.18265
 Alpha  occ. eigenvalues --  -10.18262 -10.18251 -10.18223 -10.18198 -10.18193
 Alpha  occ. eigenvalues --  -10.18189 -10.18166 -10.18164 -10.18160 -10.18116
 Alpha  occ. eigenvalues --  -10.18104 -10.18099 -10.18080 -10.18036 -10.17963
 Alpha  occ. eigenvalues --  -10.17937 -10.17893 -10.17869 -10.17842 -10.17818
 Alpha  occ. eigenvalues --  -10.17792 -10.17720 -10.17714 -10.17693 -10.17642
 Alpha  occ. eigenvalues --  -10.17617 -10.17602 -10.17516  -1.06371  -1.06322
 Alpha  occ. eigenvalues --   -1.06291  -1.06268  -1.06210  -1.06186  -1.06098
 Alpha  occ. eigenvalues --   -1.05975  -0.95657  -0.95617  -0.95577  -0.95440
 Alpha  occ. eigenvalues --   -0.89268  -0.86384  -0.85173  -0.85164  -0.85096
 Alpha  occ. eigenvalues --   -0.84923  -0.84614  -0.84540  -0.83953  -0.83693
 Alpha  occ. eigenvalues --   -0.82501  -0.82412  -0.79780  -0.77706  -0.76483
 Alpha  occ. eigenvalues --   -0.76049  -0.75927  -0.75896  -0.75809  -0.75293
 Alpha  occ. eigenvalues --   -0.75180  -0.74803  -0.74789  -0.74717  -0.74696
 Alpha  occ. eigenvalues --   -0.74673  -0.74155  -0.74022  -0.73896  -0.73824
 Alpha  occ. eigenvalues --   -0.73565  -0.73472  -0.73010  -0.72940  -0.70935
 Alpha  occ. eigenvalues --   -0.70733  -0.69854  -0.69742  -0.69664  -0.69598
 Alpha  occ. eigenvalues --   -0.68263  -0.68076  -0.67591  -0.66707  -0.66624
 Alpha  occ. eigenvalues --   -0.63492  -0.62956  -0.62112  -0.61778  -0.61732
 Alpha  occ. eigenvalues --   -0.61381  -0.61279  -0.61248  -0.60812  -0.60754
 Alpha  occ. eigenvalues --   -0.60020  -0.59983  -0.59837  -0.59520  -0.59310
 Alpha  occ. eigenvalues --   -0.58649  -0.58476  -0.57847  -0.57685  -0.57585
 Alpha  occ. eigenvalues --   -0.56199  -0.55998  -0.55858  -0.55234  -0.53676
 Alpha  occ. eigenvalues --   -0.53600  -0.53486  -0.53293  -0.53165  -0.53057
 Alpha  occ. eigenvalues --   -0.52898  -0.52772  -0.52028  -0.51703  -0.51548
 Alpha  occ. eigenvalues --   -0.51115  -0.51027  -0.50697  -0.50675  -0.49690
 Alpha  occ. eigenvalues --   -0.49144  -0.48845  -0.48619  -0.48493  -0.48334
 Alpha  occ. eigenvalues --   -0.48114  -0.47365  -0.47320  -0.47237  -0.46638
 Alpha  occ. eigenvalues --   -0.46611  -0.46558  -0.46556  -0.46486  -0.46466
 Alpha  occ. eigenvalues --   -0.46446  -0.46398  -0.46341  -0.46195  -0.46026
 Alpha  occ. eigenvalues --   -0.44524  -0.44496  -0.44481  -0.44452  -0.44402
 Alpha  occ. eigenvalues --   -0.44359  -0.44266  -0.44121  -0.43470  -0.43351
 Alpha  occ. eigenvalues --   -0.43088  -0.43069  -0.42906  -0.42591  -0.42539
 Alpha  occ. eigenvalues --   -0.42442  -0.42355  -0.42209  -0.42139  -0.42075
 Alpha  occ. eigenvalues --   -0.42050  -0.41860  -0.41762  -0.41716  -0.41685
 Alpha  occ. eigenvalues --   -0.41436  -0.41332  -0.41210  -0.41193  -0.40993
 Alpha  occ. eigenvalues --   -0.40934  -0.40878  -0.40693  -0.40642  -0.40210
 Alpha  occ. eigenvalues --   -0.39881  -0.39575  -0.38738  -0.38448  -0.38427
 Alpha  occ. eigenvalues --   -0.38242  -0.37994  -0.37892  -0.37751  -0.37714
 Alpha  occ. eigenvalues --   -0.37617  -0.37594  -0.37581  -0.37536  -0.37504
 Alpha  occ. eigenvalues --   -0.37324  -0.36697  -0.36403  -0.36278  -0.36141
 Alpha  occ. eigenvalues --   -0.36066  -0.36029  -0.35779  -0.35722  -0.35639
 Alpha  occ. eigenvalues --   -0.35489  -0.35302  -0.35273  -0.35051  -0.34715
 Alpha  occ. eigenvalues --   -0.33784  -0.33469  -0.33207  -0.32949  -0.32841
 Alpha  occ. eigenvalues --   -0.32612  -0.32567  -0.32468  -0.32444  -0.32418
 Alpha  occ. eigenvalues --   -0.32396  -0.32355  -0.32319  -0.32191  -0.32117
 Alpha  occ. eigenvalues --   -0.32065  -0.32025  -0.31977  -0.31778  -0.31371
 Alpha  occ. eigenvalues --   -0.29891  -0.29583  -0.27725  -0.27343  -0.26022
 Alpha  occ. eigenvalues --   -0.25609  -0.25502  -0.25476  -0.25393  -0.25376
 Alpha  occ. eigenvalues --   -0.25158  -0.24973  -0.24699  -0.24591  -0.24536
 Alpha  occ. eigenvalues --   -0.23930  -0.23876  -0.23276  -0.22450  -0.22390
 Alpha  occ. eigenvalues --   -0.22365  -0.22078  -0.22019  -0.21240  -0.17626
 Alpha  occ. eigenvalues --   -0.17566  -0.16007  -0.15856
 Alpha virt. eigenvalues --   -0.02837  -0.02697  -0.02041  -0.01882  -0.01587
 Alpha virt. eigenvalues --   -0.01261  -0.00143  -0.00119  -0.00060   0.00113
 Alpha virt. eigenvalues --    0.00145   0.00242   0.00309   0.00375   0.00386
 Alpha virt. eigenvalues --    0.00584   0.00895   0.01716   0.01805   0.02306
 Alpha virt. eigenvalues --    0.03483   0.03561   0.05494   0.05734   0.05847
 Alpha virt. eigenvalues --    0.06346   0.06395   0.06488   0.06531   0.06615
 Alpha virt. eigenvalues --    0.06669   0.06867   0.07295   0.07858   0.08049
 Alpha virt. eigenvalues --    0.08076   0.08456   0.08675   0.08709   0.08903
 Alpha virt. eigenvalues --    0.09651   0.09687   0.10058   0.10291   0.10370
 Alpha virt. eigenvalues --    0.10411   0.10490   0.10573   0.10622   0.10805
 Alpha virt. eigenvalues --    0.11359   0.11733   0.11963   0.12127   0.12191
 Alpha virt. eigenvalues --    0.12331   0.12389   0.12397   0.12556   0.12576
 Alpha virt. eigenvalues --    0.12669   0.12704   0.12735   0.12783   0.12829
 Alpha virt. eigenvalues --    0.12893   0.12944   0.12950   0.12973   0.13088
 Alpha virt. eigenvalues --    0.13305   0.13353   0.13367   0.13389   0.13419
 Alpha virt. eigenvalues --    0.13459   0.13498   0.13535   0.13542   0.13592
 Alpha virt. eigenvalues --    0.13631   0.13741   0.14322   0.14619   0.14706
 Alpha virt. eigenvalues --    0.14904   0.15114   0.15159   0.15180   0.15205
 Alpha virt. eigenvalues --    0.15410   0.15678   0.15934   0.15979   0.16337
 Alpha virt. eigenvalues --    0.16421   0.16577   0.16659   0.16788   0.16854
 Alpha virt. eigenvalues --    0.16982   0.17090   0.17165   0.17358   0.17408
 Alpha virt. eigenvalues --    0.17646   0.17948   0.18216   0.18513   0.18651
 Alpha virt. eigenvalues --    0.18719   0.19017   0.19749   0.19821   0.19897
 Alpha virt. eigenvalues --    0.20462   0.21618   0.21922   0.22735   0.22771
 Alpha virt. eigenvalues --    0.23450   0.23518   0.23593   0.23796   0.24213
 Alpha virt. eigenvalues --    0.24339   0.24420   0.24482   0.24728   0.25002
 Alpha virt. eigenvalues --    0.25373   0.25616   0.25687   0.26471   0.26541
 Alpha virt. eigenvalues --    0.26688   0.27068   0.27442   0.27707   0.27841
 Alpha virt. eigenvalues --    0.28094   0.28191   0.28368   0.28804   0.28856
 Alpha virt. eigenvalues --    0.28915   0.29198   0.29718   0.30043   0.30952
 Alpha virt. eigenvalues --    0.31374   0.31574   0.31854   0.31975   0.32232
 Alpha virt. eigenvalues --    0.32403   0.32508   0.32658   0.32929   0.33422
 Alpha virt. eigenvalues --    0.33476   0.33719   0.33799   0.33995   0.34396
 Alpha virt. eigenvalues --    0.34474   0.34982   0.35139   0.35345   0.35566
 Alpha virt. eigenvalues --    0.35678   0.35853   0.36100   0.36397   0.36570
 Alpha virt. eigenvalues --    0.36868   0.37288   0.37639   0.37746   0.37875
[...]
 Alpha virt. eigenvalues --    1.79376   1.79547   1.79720   1.79778   1.79970
 Alpha virt. eigenvalues --    1.80100   1.80199   1.80394   1.80577   1.80596
 Alpha virt. eigenvalues --    1.80712   1.80839   1.80973   1.81223   1.81293
 Alpha virt. eigenvalues --    1.81483   1.81538   1.81709   1.81946   1.81991
 Alpha virt. eigenvalues --    1.82285   1.82483   1.82565   1.82579   1.83029
 Alpha virt. eigenvalues --    1.83218   1.83486   1.83884   1.84138   1.84197
 Alpha virt. eigenvalues --    1.84371   1.84741   1.84945   1.85111   1.85370
 Alpha virt. eigenvalues --    1.85745   1.85875   1.86133   1.86356   1.86467
 Alpha virt. eigenvalues --    1.86669   1.86781   1.87003   1.87166   1.87222
 Alpha virt. eigenvalues --    1.87279   1.87383   1.87408   1.87806   1.88020
 Alpha virt. eigenvalues --    1.88200   1.88342   1.88740   1.89091   1.89163
 Alpha virt. eigenvalues --    1.89375   1.89563   1.89732   1.90071   1.90333
 Alpha virt. eigenvalues --    1.90634   1.90749   1.90989   1.91508   1.91881
 Alpha virt. eigenvalues --    1.92318   1.92814   1.93205   1.93333   1.93870
 Alpha virt. eigenvalues --    1.94206   1.94801   1.95151   1.95294   1.95579
 Alpha virt. eigenvalues --    1.95692   1.96106   1.97452   1.97544   1.97642
 Alpha virt. eigenvalues --    1.97750   1.97845   1.97937   1.98219   1.98319
 Alpha virt. eigenvalues --    1.98433   1.98470   1.98709   1.98979   1.99353
 Alpha virt. eigenvalues --    1.99385   1.99434   1.99573   1.99673   1.99873
 Alpha virt. eigenvalues --    2.00233   2.00459   2.00687   2.00831   2.00877
 Alpha virt. eigenvalues --    2.01277   2.01749   2.02084   2.02340   2.02369
 Alpha virt. eigenvalues --    2.02716   2.03079   2.03250   2.03263   2.03479
 Alpha virt. eigenvalues --    2.03566   2.03951   2.04300   2.04722   2.04947
 Alpha virt. eigenvalues --    2.05269   2.05322   2.05482   2.05698   2.06151
 Alpha virt. eigenvalues --    2.06241   2.06254   2.06334   2.06367   2.06578
 Alpha virt. eigenvalues --    2.06812   2.06893   2.06964   2.07063   2.07116
 Alpha virt. eigenvalues --    2.07405   2.07624   2.07645   2.08181   2.08301
 Alpha virt. eigenvalues --    2.08512   2.08737   2.09126   2.09841   2.10018
 Alpha virt. eigenvalues --    2.10289   2.10372   2.10792   2.11336   2.12222
 Alpha virt. eigenvalues --    2.12430   2.12914   2.13112   2.13250   2.14167
 Alpha virt. eigenvalues --    2.14337   2.14590   2.14965   2.15130   2.15328
 Alpha virt. eigenvalues --    2.15336   2.15749   2.16015   2.16694   2.16824
 Alpha virt. eigenvalues --    2.17051   2.17199   2.17307   2.17451   2.17476
 Alpha virt. eigenvalues --    2.17603   2.17949   2.18143   2.18405   2.19040
 Alpha virt. eigenvalues --    2.19288   2.19376   2.20265   2.20589   2.20738
 Alpha virt. eigenvalues --    2.21034   2.21210   2.21484   2.21820   2.22034
 Alpha virt. eigenvalues --    2.22449   2.22590   2.22850   2.23082   2.23212
 Alpha virt. eigenvalues --    2.23391   2.23662   2.23825   2.24072   2.24356
 Alpha virt. eigenvalues --    2.24499   2.24837   2.24888   2.25057   2.25172
 Alpha virt. eigenvalues --    2.25240   2.25622   2.25870   2.26152   2.26450
 Alpha virt. eigenvalues --    2.26657   2.26763   2.27202   2.27741   2.27832
 Alpha virt. eigenvalues --    2.28065   2.28722   2.28949   2.28989   2.29558
 Alpha virt. eigenvalues --    2.30153   2.30371   2.32028   2.33160   2.33938
 Alpha virt. eigenvalues --    2.34375   2.36556   2.38329   2.39117   2.39280
 Alpha virt. eigenvalues --    2.39323   2.39372   2.39397   2.39410   2.39460
 Alpha virt. eigenvalues --    2.39488   2.39574   2.40005   2.40677   2.40715
 Alpha virt. eigenvalues --    2.40889   2.41049   2.41793   2.42014   2.42501
 Alpha virt. eigenvalues --    2.42771   2.43085   2.43733   2.44081   2.44149
 Alpha virt. eigenvalues --    2.44209   2.44352   2.44479   2.44539   2.44583
 Alpha virt. eigenvalues --    2.44855   2.44935   2.44982   2.45094   2.45261
 Alpha virt. eigenvalues --    2.45930   2.46610   2.46925   2.48189   2.48261
 Alpha virt. eigenvalues --    2.48728   2.48810   2.48941   2.49034   2.49172
 Alpha virt. eigenvalues --    2.49494   2.49582   2.49617   2.49767   2.49976
 Alpha virt. eigenvalues --    2.50039   2.50313   2.50709   2.51110   2.52918
 Alpha virt. eigenvalues --    2.52999   2.53210   2.53396   2.53967   2.54225
 Alpha virt. eigenvalues --    2.56710   2.56766   2.57253   2.58023   2.58531
 Alpha virt. eigenvalues --    2.58686   2.58793   2.59250   2.59529   2.59896
 Alpha virt. eigenvalues --    2.63484   2.63722   2.63937   2.64079   2.64534
 Alpha virt. eigenvalues --    2.64918   2.64986   2.65330   2.65502   2.65613
 Alpha virt. eigenvalues --    2.65832   2.65867   2.66498   2.66751   2.66882
 Alpha virt. eigenvalues --    2.67184   2.67579   2.68266   2.68488   2.68701
 Alpha virt. eigenvalues --    2.68767   2.69106   2.69280   2.69744   2.70904
 Alpha virt. eigenvalues --    2.71914   2.72647   2.74611   2.74871   2.76201
 Alpha virt. eigenvalues --    2.77860   2.78090   2.78368   2.78649   2.78780
 Alpha virt. eigenvalues --    2.78974   2.79697   2.81743   2.81825   2.82117
 Alpha virt. eigenvalues --    2.86338   2.86613   2.86807   2.88015   2.88101
 Alpha virt. eigenvalues --    2.88153   2.88191   2.88250   2.88298   2.88346
 Alpha virt. eigenvalues --    2.88524   2.88916   2.90815   2.91106   2.91398
 Alpha virt. eigenvalues --    2.91522   2.92091   2.92368   2.92771   2.93091
 Alpha virt. eigenvalues --    2.93768   2.95112   2.95176   2.95575   2.98218
 Alpha virt. eigenvalues --    2.98529   3.02571   3.02768   3.02960   3.02993
 Alpha virt. eigenvalues --    3.03029   3.03048   3.03128   3.03188   3.03198
 Alpha virt. eigenvalues --    3.03230   3.03369   3.03395   3.03941   3.04079
 Alpha virt. eigenvalues --    3.04336   3.04676   3.04926   3.05205   3.06184
 Alpha virt. eigenvalues --    3.07068   3.07362   3.08010   3.09189   3.09409
 Alpha virt. eigenvalues --    3.14381   3.26310   3.26384   3.26544   3.26623
 Alpha virt. eigenvalues --    3.27024   3.27061   3.27231   3.27793   3.39749
 Alpha virt. eigenvalues --    3.40360   3.40453   3.40477   3.40575   3.40636
 Alpha virt. eigenvalues --    3.40665   3.40778   3.41076   3.41824   3.55539
 Alpha virt. eigenvalues --    3.55622   3.65002   3.65011   3.65086   3.65296
 Alpha virt. eigenvalues --    3.65873   3.65885   3.65957   3.66152
          Condensed to atoms (all electrons):
 Mulliken atomic charges:
              1
     1  C   -0.299083
     2  C    0.099860
     3  C    0.041780
     4  C    0.041712
     5  C    0.098818
     6  C    0.100303
     7  C    0.042037
     8  C    0.042096
     9  C    0.099552
    10  C    0.015948
    11  C    0.079773
    12  C    0.060538
    13  C   -0.010774
    14  C   -0.011618
    15  C    0.058344
    16  C    0.083191
    17  C    0.013888
    18  C    0.014942
    19  C    0.082808
    20  C    0.059225
    21  C   -0.011931
    22  C   -0.010820
    23  C    0.062474
    24  C    0.075833
    25  C    0.015516
    26  N   -0.277500
    27  N   -0.277683
    28  N   -0.277487
    29  N   -0.277349
    30  C    0.035181
    31  C    0.037276
    32  C    0.049435
    33  C    0.041607
    34  C    0.043393
    35  C    0.037151
    36  C    0.040325
    37  C    0.037736
    38  C    0.039359
    39  C   -0.003511
    40  C    0.117720
    41  C    0.049090
    42  C    0.051475
    43  C    0.041691
    44  C   -0.001952
    45  C    0.119438
    46  C    0.039913
    47  C    0.047600
    48  C    0.040644
    49  C   -0.003367
    50  C    0.117997
    51  C    0.049250
    52  C    0.053145
    53  C    0.044369
    54  C   -0.001898
    55  C    0.119843
    56  C    0.040513
    57  C    0.050479
    58  C    0.040101
    59  C   -0.011036
    60  C    0.119370
    61  C    0.050653
    62  C    0.054098
    63  C    0.041457
    64  C   -0.003061
    65  C    0.118044
    66  C    0.048784
    67  C    0.048229
    68  C    0.042098
    69  C    0.037469
    70  C    0.119431
    71  C   -0.001596
    72  C    0.037254
    73  C    0.043502
    74  C   -0.002932
    75  C    0.118322
    76  C    0.049197
    77  C    0.052382
    78  H   -0.041225
    79  H   -0.041335
    80  H   -0.033678
    81  H   -0.057235
    82  H   -0.056883
    83  H   -0.033329
    84  H   -0.056518
    85  H   -0.035777
    86  H   -0.056595
    87  H   -0.033814
    88  H   -0.041848
    89  H   -0.041574
    90  O   -0.280517
    91  C    0.131008
    92  O   -0.282605
    93  C    0.131024
    94  O   -0.282570
    95  O   -0.280514
    96  C    0.131269
    97  C    0.131061
    98  H   -0.031713
    99  H   -0.027859
   100  H   -0.032657
   101  H   -0.036857
   102  H   -0.035930
   103  H   -0.031762
   104  H   -0.026438
   105  H   -0.025193
   106  H   -0.030402
   107  H   -0.035958
   108  H   -0.026882
   109  H   -0.025016
   110  H   -0.035590
   111  H   -0.029117
   112  H   -0.031988
   113  H   -0.029798
   114  H    0.024182
   115  H    0.024729
   116  H    0.031895
   117  H    0.023573
   118  H    0.025128
   119  H    0.032270
   120  H    0.032203
   121  H    0.023961
   122  H    0.024899
   123  H    0.023936
   124  H    0.025772
   125  H    0.032654
   126  H   -0.031725
   127  H   -0.031898
   128  H   -0.030032
   129  H   -0.025773
   130  H   -0.029142
   131  H   -0.034775
   132  H   -0.032051
   133  H   -0.033025
   134  H   -0.036865
   135  H   -0.033962
   136  H   -0.025776
   137  H   -0.025554
   138  H   -0.027721
   139  H   -0.030573
   140  H   -0.035921
   141  H   -0.032361
   142  O   -0.282624
   143  C    0.129876
   144  O   -0.282083
   145  C    0.131074
   146  O   -0.280176
   147  C    0.131186
   148  O   -0.282364
   149  C    0.130727
   150  H    0.031070
   151  H    0.028562
   152  H    0.026397
   153  H    0.032415
   154  H    0.024961
   155  H    0.025028
   156  H    0.032613
   157  H    0.023734
   158  H    0.025128
   159  H    0.032448
   160  H    0.023957
   161  H    0.024781
 Sum of Mulliken atomic charges =   0.00000
 Mulliken charges with hydrogens summed into heavy atoms:
              1
     1  C   -0.299083
     2  C    0.099860
     3  C    0.041780
     4  C    0.041712
     5  C    0.098818
     6  C    0.100303
     7  C    0.042037
     8  C    0.042096
     9  C    0.099552
    10  C   -0.025626
    11  C    0.079773
    12  C    0.026724
    13  C   -0.067369
    14  C   -0.068502
    15  C    0.025015
    16  C    0.083191
    17  C   -0.027960
    18  C   -0.026393
    19  C    0.082808
    20  C    0.025547
    21  C   -0.069166
    22  C   -0.067338
    23  C    0.026697
    24  C    0.075833
    25  C   -0.025709
    26  N   -0.277500
    27  N   -0.277683
    28  N   -0.277487
    29  N   -0.277349
    30  C    0.035181
    31  C    0.037276
    32  C    0.049435
    33  C    0.041607
    34  C    0.043393
    35  C    0.037151
    36  C    0.040325
    37  C    0.037736
    38  C    0.007597
    39  C   -0.039441
    40  C    0.117720
    41  C    0.017378
    42  C    0.023615
    43  C    0.009034
    44  C   -0.038809
    45  C    0.119438
    46  C    0.013475
    47  C    0.022407
    48  C    0.008283
    49  C   -0.039288
    50  C    0.117997
    51  C    0.018676
    52  C    0.025424
    53  C    0.010407
    54  C   -0.038762
    55  C    0.119843
    56  C    0.014737
    57  C    0.024926
    58  C    0.014328
    59  C   -0.041068
    60  C    0.119370
    61  C    0.018928
    62  C    0.022200
    63  C    0.012340
    64  C   -0.038651
    65  C    0.118044
    66  C    0.016795
    67  C    0.018431
    68  C    0.017082
    69  C    0.010587
    70  C    0.119431
    71  C   -0.037553
    72  C    0.006851
    73  C    0.014360
    74  C   -0.037708
    75  C    0.118322
    76  C    0.017147
    77  C    0.019357
    90  O   -0.280517
    91  C    0.213370
    92  O   -0.282605
    93  C    0.211830
    94  O   -0.282570
    95  O   -0.280514
    96  C    0.212239
    97  C    0.212124
   142  O   -0.282624
   143  C    0.215905
   144  O   -0.282083
   145  C    0.212261
   146  O   -0.280176
   147  C    0.212661
   148  O   -0.282364
   149  C    0.213130
 Sum of Mulliken charges with hydrogens summed into heavy atoms =   0.00000
 Electronic spatial extent (au):  <R**2>=         110599.4761
 Charge=              0.0000 electrons
 Dipole moment (field-independent basis, Debye):
    X=              1.7753    Y=             -4.3385    Z=              0.4879  Tot=              4.7130
 Quadrupole moment (field-independent basis, Debye-Ang):
   XX=           -460.8597   YY=           -493.3881   ZZ=           -494.6616
   XY=             13.9377   XZ=             -9.2942   YZ=              4.9715
 Traceless Quadrupole moment (field-independent basis, Debye-Ang):
   XX=             22.1101   YY=            -10.4183   ZZ=            -11.6918
   XY=             13.9377   XZ=             -9.2942   YZ=              4.9715
 Octapole moment (field-independent basis, Debye-Ang**2):
  XXX=            -48.0493  YYY=           -160.7574  ZZZ=             21.5134  XYY=            166.3640
  XXY=           -389.9086  XXZ=             45.5451  XZZ=             19.2312  YZZ=           -159.5115
  YYZ=             21.9834  XYZ=             15.3913
 Hexadecapole moment (field-independent basis, Debye-Ang**3):
 XXXX=         -58964.0784 YYYY=         -56549.2009 ZZZZ=         -22812.7917 XXXY=            346.1588
 XXXZ=           -481.2728 YYYX=            704.7640 YYYZ=           -149.7626 ZZZX=              8.0991
 ZZZY=            158.6949 XXYY=         -18546.1782 XXZZ=         -12277.2931 YYZZ=         -12181.8677
 XXYZ=            587.9933 YYXZ=           1014.0670 ZZXY=            172.6808
 N-N= 1.619527807423D+04 E-N=-4.157446693775D+04  KE= 3.922835388428D+03
 Leave Link  601 at Mon Feb  2 22:20:32 2015, MaxMem= 2147483648 cpu:      76.8
 (Enter /opt/g09/l9999.exe)
 1\1\GINC-CHPC-SCANDIUM\SP\RB3LYP\CC-pVDZ\C81H68N4O8\JARVIST\02-Feb-201
 5\0\\#p sp B3LYP/cc-pVDZ\\Auto Spiro; and yes I said yes I will Yes.\\
 0,1\C,0,-0.0331,0.060747,-0.001812\C,0,-0.820358,0.962808,0.956441\C,0
 ,-0.538927,0.626776,2.295284\C,0,0.42737,-0.472949,2.312332\C,0,0.7371
 7,-0.825783,0.983991\C,0,-0.918918,-0.727713,-0.97428\C,0,-0.573627,-0
 .432104,-2.307696\C,0,0.532333,0.52691,-2.307051\C,0,0.865748,0.834899
 ,-0.973448\C,0,-1.945755,-1.608096,-0.673696\C,0,-2.651084,-2.228906,-
 1.723731\C,0,-2.29982,-1.938042,-3.056637\C,0,-1.275444,-1.041486,-3.3
 50504\C,0,1.036241,-1.161764,3.364158\C,0,1.931299,-2.191856,3.084695\
 C,0,2.247127,-2.540492,1.756728\C,0,1.638003,-1.838496,0.697493\C,0,-1
 .711954,1.974079,0.638108\C,0,-2.340905,2.691719,1.675054\C,0,-2.05530
 5,2.35807,3.013783\C,0,-1.168742,1.329841,3.325229\C,0,1.244348,1.1255
 71,-3.349454\C,0,2.267542,2.023036,-3.054567\C,0,2.607727,2.325245,-1.
 721472\C,0,1.892244,1.716007,-0.672038\N,0,-3.705003,-3.13496,-1.44404
 \N,0,3.166629,-3.585582,1.488657\N,0,-3.247234,3.73893,1.373045\N,0,3.
 662172,3.233442,-1.444701\C,0,4.858523,3.187046,-2.214758\C,0,-2.97910
 3,4.629396,0.295036\C,0,3.544537,4.17504,-0.386226\C,0,-4.420187,3.926
 445,2.155976\C,0,-3.589957,-4.063873,-0.372783\C,0,-4.878048,-3.134774
 ,-2.25027\C,0,4.315349,-3.760559,2.309992\C,0,2.93872,-4.480068,0.4051
 89\C,0,4.698282,-5.032854,2.749736\C,0,5.837375,-5.21401,3.537569\C,0,
 6.604161,-4.108534,3.920588\C,0,6.221583,-2.828378,3.493665\C,0,5.1019
 62,-2.658337,2.691881\C,0,-4.668352,-4.307737,0.485357\C,0,-4.573783,-
 5.240618,1.520556\C,0,-3.376556,-5.933133,1.72901\C,0,-2.286184,-5.685
 311,0.882139\C,0,-2.393802,-4.773025,-0.158332\C,0,-5.435745,-4.332286
 ,-2.71199\C,0,-6.598708,-4.337691,-3.485735\C,0,-7.212304,-3.129087,-3
 .832014\C,0,-6.653933,-1.92336,-3.382554\C,0,-5.511458,-1.926943,-2.59
 5091\C,0,3.978003,-4.839286,-0.460084\C,0,3.768058,-5.735734,-1.510459
 \C,0,2.494527,-6.272825,-1.725621\C,0,1.444075,-5.909656,-0.869754\C,0
 ,1.664978,-5.035162,0.185204\C,0,-1.702432,5.172087,0.109602\C,0,-1.43
 3725,6.042011,-0.949801\C,0,-2.456796,6.403267,-1.83368\C,0,-3.741713,
 5.873136,-1.647554\C,0,-3.99597,4.991886,-0.605989\C,0,-5.217063,2.838
 806,2.532745\C,0,-6.365743,3.017644,3.306675\C,0,-6.751683,4.304528,3.
 697147\C,0,-5.966069,5.400997,3.313722\C,0,-4.813063,5.213809,2.564561
 \C,0,2.340496,4.87178,-0.172045\C,0,2.229003,5.798305,0.855166\C,0,3.3
 2266,6.075023,1.688972\C,0,4.526601,5.394563,1.481573\C,0,4.625628,4.4
 46378,0.460586\C,0,5.479466,1.966882,-2.504869\C,0,6.646503,1.913144,-
 3.27031\C,0,7.228113,3.095552,-3.740271\C,0,6.619077,4.32396,-3.44408\
 C,0,5.447061,4.367811,-2.702376\H,0,2.152528,1.937271,0.358419\H,0,-1.
 932013,2.217704,-0.396538\H,0,-2.534179,2.918533,3.810034\H,0,-0.96282
 1,1.09558,4.366778\H,0,0.808492,-0.914287,4.398044\H,0,2.394153,-2.740
 943,3.898165\H,0,0.999684,0.91069,-4.386743\H,0,2.816553,2.5021,-3.858
 884\H,0,-1.022483,-0.83574,-4.387651\H,0,-2.839488,-2.426052,-3.861703
 \H,0,1.880913,-2.093488,-0.329289\H,0,-2.215068,-1.819865,0.356411\O,0
 ,3.110292,7.015651,2.659269\C,0,4.17954,7.317725,3.538605\O,0,-7.86094
 2,4.597023,4.443285\C,0,-8.693482,3.524466,4.84775\O,0,7.729856,-4.166
 813,4.696438\O,0,-3.168862,-6.860661,2.712999\C,0,-4.236833,-7.139737,
 3.601022\C,0,8.15209,-5.436045,5.163494\H,0,6.829091,-1.979072,3.79098
 7\H,0,4.823808,-1.664049,2.356752\H,0,-5.598,-3.766916,0.338265\H,0,-5
 .433407,-5.403652,2.160812\H,0,6.102873,-6.216167,3.854839\H,0,4.10201
 9,-5.895092,2.468064\H,0,-1.365313,-6.235964,1.049599\H,0,-1.545398,-4
 .59928,-0.812894\H,0,5.561138,3.915059,0.317157\H,0,5.389174,5.578353,
 2.112122\H,0,1.300814,6.336053,1.02471\H,0,1.487925,4.674269,-0.814338
 \H,0,-6.954178,2.149374,3.581209\H,0,-4.933649,1.838121,2.221766\H,0,-
 6.272006,6.394109,3.628157\H,0,-4.206847,6.069605,2.284916\H,0,-8.1543
 9,2.810042,5.484925\H,0,-9.112815,2.9887,3.985218\H,0,-9.506497,3.9744
 28,5.421005\H,0,-5.112124,-7.538531,3.070073\H,0,-4.537656,-6.247422,4
 .166802\H,0,-3.862078,-7.895346,4.294277\H,0,9.052235,-5.255028,5.7542
 57\H,0,8.394823,-6.113944,4.333666\H,0,7.391038,-5.908026,5.799765\H,0
 ,5.047771,7.719239,2.998255\H,0,4.49261,6.435864,4.113909\H,0,3.799726
 ,8.077902,4.224011\H,0,-4.525337,6.155154,-2.344023\H,0,-4.991725,4.57
 853,-0.479636\H,0,-0.431644,6.440671,-1.061943\H,0,-0.905423,4.905451,
 0.796831\H,0,5.041948,1.045722,-2.132726\H,0,7.095172,0.948089,-3.4770
 96\H,0,7.076033,5.233905,-3.820867\H,0,4.977816,5.323329,-2.489647\H,0
 ,4.599726,-5.992272,-2.156969\H,0,4.96701,-4.41859,-0.307173\H,0,0.462
 512,-6.340757,-1.042546\H,0,0.846489,-4.769304,0.846969\H,0,-5.096254,
 -0.988321,-2.241595\H,0,-7.143716,-0.992377,-3.651059\H,0,-7.002419,-5
 .286424,-3.821058\H,0,-4.958795,-5.273963,-2.458628\O,0,-2.309366,7.25
 3154,-2.89474\C,0,-1.027366,7.810942,-3.12874\O,0,-8.344892,-3.015541,
 -4.591262\C,0,-8.943435,-4.204321,-5.076802\O,0,2.173547,-7.149903,-2.
 725012\C,0,3.195226,-7.53278,-3.62882\O,0,8.372478,3.161908,-4.487088\
 C,0,9.029158,1.948121,-4.808743\H,0,-1.131575,8.442339,-4.013275\H,0,-
 0.276865,7.033406,-3.325294\H,0,-0.692414,8.426399,-2.282825\H,0,9.902
 805,2.226682,-5.401273\H,0,8.386083,1.284147,-5.402421\H,0,9.359037,1.
 414298,-3.907102\H,0,2.728359,-8.22049,-4.336659\H,0,4.01948,-8.046853
 ,-3.115541\H,0,3.597315,-6.668866,-4.175298\H,0,-9.819106,-3.888886,-5
 .647487\H,0,-9.263811,-4.861565,-4.256792\H,0,-8.263395,-4.760823,-5.7
 36096\\Version=EM64L-G09RevA.02\State=1-A\HF=-3948.5155286\RMSD=3.330e
 -09\Dipole=0.6984643,-1.7068944,0.1919593\Quadrupole=16.4383122,-7.745
 7632,-8.692549,10.3623693,-6.9099989,3.6962217\PG=C01 [X(C81H68N4O8)]\
 \@


 THE MORE ACCURATE THE CALCULATIONS BECOME, THE MORE THE CONCEPTS
 TEND TO VANISH INTO THIN AIR.
     -- R.S. MULLIKEN, J.C.P. 43,S2(1965)
 Job cpu time:  0 days  9 hours 10 minutes 30.1 seconds.
 File lengths (MBytes):  RWF=   1440 Int=      0 D2E=      0 Chk=     94 Scr=      1
 Normal termination of Gaussian 09 at Mon Feb  2 22:20:32 2015.
