 Entering Gaussian System, Link 0=g09
 Input=sp_1_B3LYP_cc-pVDZ.com
 Output=sp_1_B3LYP_cc-pVDZ.log
 Initial command:
 /opt/g09/l1.exe /home/jarvist/2014-07_SPIRO/b3lyp-631gs_opt/delta_scf/neutral/Gau-43636.inp -scrdir=/home/jarvist/2014-07_SPIRO/b3lyp-631gs_opt/delta_scf/neutral/
 Default is to use a total of   8 processors:
                                8 via shared-memory
                                1 via Linda
 Entering Link 1 = /opt/g09/l1.exe PID=     43638.
  
 Copyright (c) 1988,1990,1992,1993,1995,1998,2003,2009, Gaussian, Inc.
                  All Rights Reserved.
  
 This is part of the Gaussian(R) 09 program.  It is based on
 the Gaussian(R) 03 system (copyright 2003, Gaussian, Inc.),
 the Gaussian(R) 98 system (copyright 1998, Gaussian, Inc.),
 the Gaussian(R) 94 system (copyright 1995, Gaussian, Inc.),
 the Gaussian 92(TM) system (copyright 1992, Gaussian, Inc.),
 the Gaussian 90(TM) system (copyright 1990, Gaussian, Inc.),
 the Gaussian 88(TM) system (copyright 1988, Gaussian, Inc.),
 the Gaussian 86(TM) system (copyright 1986, Carnegie Mellon
 University), and the Gaussian 82(TM) system (copyright 1983,
 Carnegie Mellon University). Gaussian is a federally registered
 trademark of Gaussian, Inc.
  
 This software contains proprietary and confidential information,
 including trade secrets, belonging to Gaussian, Inc.
  
 This software is provided under written license and may be
 used, copied, transmitted, or stored only in accord with that
 written license.
  
 The following legend is applicable only to US Government
 contracts under FAR:
  
                    RESTRICTED RIGHTS LEGEND
  
 Use, reproduction and disclosure by the US Government is
 subject to restrictions as set forth in subparagraphs (a)
 and (c) of the Commercial Computer Software - Restricted
 Rights clause in FAR 52.227-19.
  
 Gaussian, Inc.
 340 Quinnipiac St., Bldg. 40, Wallingford CT 06492
  
  
 ---------------------------------------------------------------
 Warning -- This program may not be used in any manner that
 competes with the business of Gaussian, Inc. or will provide
 assistance to any competitor of Gaussian, Inc.  The licensee
 of this program is prohibited from giving any competitor of
 Gaussian, Inc. access to this program.  By using this program,
 the user acknowledges that Gaussian, Inc. is engaged in the
 business of creating and licensing software in the field of
 computational chemistry and represents and warrants to the
 licensee that it is not a competitor of Gaussian, Inc. and that
 it will not use this program in any manner prohibited above.
 ---------------------------------------------------------------
  

 Cite this work as:
 Gaussian 09, Revision A.02,
 M. J. Frisch, G. W. Trucks, H. B. Schlegel, G. E. Scuseria, 
 M. A. Robb, J. R. Cheeseman, G. Scalmani, V. Barone, B. Mennucci, 
 G. A. Petersson, H. Nakatsuji, M. Caricato, X. Li, H. P. Hratchian, 
 A. F. Izmaylov, J. Bloino, G. Zheng, J. L. Sonnenberg, M. Hada, 
 M. Ehara, K. Toyota, R. Fukuda, J. Hasegawa, M. Ishida, T. Nakajima, 
 Y. Honda, O. Kitao, H. Nakai, T. Vreven, J. A. Montgomery, Jr., 
 J. E. Peralta, F. Ogliaro, M. Bearpark, J. J. Heyd, E. Brothers, 
 K. N. Kudin, V. N. Staroverov, R. Kobayashi, J. Normand, 
 K. Raghavachari, A. Rendell, J. C. Burant, S. S. Iyengar, J. Tomasi, 
 M. Cossi, N. Rega, J. M. Millam, M. Klene, J. E. Knox, J. B. Cross, 
 V. Bakken, C. Adamo, J. Jaramillo, R. Gomperts, R. E. Stratmann, 
 O. Yazyev, A. J. Austin, R. Cammi, C. Pomelli, J. W. Ochterski, 
 R. L. Martin, K. Morokuma, V. G. Zakrzewski, G. A. Voth, 
 P. Salvador, J. J. Dannenberg, S. Dapprich, A. D. Daniels, 
 O. Farkas, J. B. Foresman, J. V. Ortiz, J. Cioslowski, 
 and D. J. Fox, Gaussian, Inc., Wallingford CT, 2009.
 
 ******************************************
 Gaussian 09:  EM64L-G09RevA.02 11-Jun-2009
                 2-Feb-2015 
 ******************************************
 %mem=16GB
 %nprocs=24
 Will use up to   24 processors via shared memory.
 Default route:  MaxDisk=100GB
 -------------------
 #p sp B3LYP/cc-pVDZ
 -------------------
 1/38=1/1;
 2/12=2,17=6,18=5,40=1/2;
 3/5=16,11=2,16=1,25=1,30=1,74=-5/1,2,3;
 4//1;
 5/5=2,38=5/2;
 6/7=2,8=2,9=2,10=2,28=1/1;
 99/5=1,9=1/99;
 Leave Link    1 at Mon Feb  2 22:20:32 2015, MaxMem= 2147483648 cpu:       1.3
 (Enter /opt/g09/l101.exe)
 ------------------------------------------
 Auto Spiro; and yes I said yes I will Yes.
 ------------------------------------------
 Symbolic Z-matrix:
 Charge =  0 Multiplicity = 1
 C                    -0.00004   0.00011  -0.00008 
 C                     0.86073  -0.828     0.98013 
 C                     0.54042  -0.48993   2.30909 
 C                    -0.54004   0.49081   2.30907 
 C                    -0.86072   0.82841   0.98008 
 C                     0.86033   0.82873  -0.98025 
 C                     0.53989   0.49087  -2.30923 
 C                    -0.5402   -0.49028  -2.30924 
 C                    -0.86042  -0.8284   -0.98027 
 C                     1.87528   1.7413   -0.71047 
 C                     2.58994   2.31153  -1.78124 
 C                     2.26265   1.96769  -3.10213 
 C                     1.2442    1.06076  -3.37074 
 C                    -1.24444   1.06054   3.37059 
 C                    -2.2633    1.967     3.102 
 C                    -2.59093   2.31049   1.7811 
 C                    -1.87614   1.74048   0.71032 
 C                     1.87597  -1.74027   0.7104 
 C                     2.591    -2.31002   1.78118 
 C                     2.26378  -1.966     3.10205 
 C                     1.24509  -1.05935   3.3706 
 C                    -1.24465  -1.06002  -3.37073 
 C                    -2.26297  -1.96708  -3.10215 
 C                    -2.59001  -2.31123  -1.78127 
 C                    -1.87525  -1.74112  -0.71051 
 N                     3.66523   3.21827  -1.54655 
 N                    -3.66679   3.21659   1.54648 
 N                     3.6666   -3.21636   1.54654 
 N                    -3.66511  -3.21817  -1.54656 
 C                    -4.84473  -3.1129   -2.32994 
 C                     3.48919  -4.3287    0.68576 
 C                    -3.48667  -4.33068  -0.68619 
 C                     4.84596  -3.11062   2.33027 
 C                     3.48709   4.3307   -0.68603 
 C                     4.8448    3.1127   -2.32995 
 C                    -4.84612   3.11045   2.33018 
 C                    -3.48961   4.32894   0.68566 
 C                    -5.32566   4.18584   3.11161 
 C                    -6.49992   4.0611    3.86645 
 C                    -7.17995   2.84666   3.8825 
 C                    -6.72025   1.75927   3.14351 
 C                    -5.57198   1.89577   2.35392 
 C                     4.38085   4.57876   0.37473 
 C                     4.23647   5.71289   1.18651 
 C                     3.19278   6.60065   0.94072 
 C                     2.29455   6.38597  -0.10486 
 C                     2.44993   5.26159  -0.92512 
 C                     5.32394   4.1883   -3.11135 
 C                     6.49843   4.06414  -3.86592 
 C                     7.17912   2.85007  -3.88172 
 C                     6.71986   1.76248  -3.14275 
 C                     5.57134   1.89842  -2.35341 
 C                    -4.38398   4.57624  -0.37477 
 C                    -4.24071   5.71033  -1.1868 
 C                    -3.19752   6.59883  -0.9416 
 C                    -2.2987    6.3849    0.10364 
 C                    -2.45295   5.26054   0.92414 
 C                     2.45244  -5.26016   0.92441 
 C                     2.29803  -6.3846    0.10403 
 C                     3.19674  -6.5987   -0.94126 
 C                     4.23999  -5.71032  -1.18664 
 C                     4.38345  -4.57618  -0.37472 
 C                     5.57236  -1.89625   2.35386 
 C                     6.72072  -1.76019   3.1434 
 C                     7.17992  -2.8477    3.88251 
 C                     6.49933  -4.06183   3.86664 
 C                     5.32501  -4.18613   3.11183 
 C                    -2.44942  -5.2614   -0.92556 
 C                    -2.2938   -6.38587  -0.10547 
 C                    -3.19185  -6.6008    0.94022 
 C                    -4.2356   -5.71319   1.18629 
 C                    -4.38023  -4.57897   0.37468 
 C                    -5.57163  -1.89883  -2.35331 
 C                    -6.72024  -1.7632   -3.14256 
 C                    -7.17922  -2.85088  -3.88156 
 C                    -6.49815  -4.06474  -3.86587 
 C                    -5.32357  -4.18859  -3.11139 
 H                    -2.14884  -1.99334   0.30992 
 H                     2.14966  -1.9924   -0.31004 
 H                     2.81425  -2.429     3.91467 
 H                     1.00104  -0.80464   4.39938 
 H                    -1.00008   0.80619   4.39939 
 H                    -2.81361   2.43026   3.9146 
 H                    -1.00071  -0.80524  -4.39952 
 H                    -2.81325  -2.43036  -3.91475 
 H                     1.00008   0.80619  -4.39953 
 H                     2.81285   2.43108  -3.91472 
 H                    -2.15019   1.99221  -0.31012 
 H                     2.1491    1.99328   0.30996 
 H                    -7.26397   0.82279   3.16453 
 O                    -5.07401   0.89939   1.57386 
 O                     5.37783   3.65799   0.53754 
 H                     4.91983   5.8976    2.00649 
 H                    -6.86467   4.89136   4.45889 
 O                    -4.56886   5.3221    3.09032 
 H                     1.50947   7.10623  -0.3027 
 O                     1.6719    4.99443  -2.00381 
 O                    -5.37727  -3.65831   0.53778 
 H                    -4.91881  -5.89808   2.00636 
 H                    -1.50867  -7.10603  -0.30353 
 O                    -1.6716   -4.994    -2.00433 
 H                     7.26488  -0.82397   3.16427 
 O                     5.07481  -0.89974   1.57372 
 H                     6.86372  -4.89217   4.45918 
 O                     4.56768  -5.32203   3.09067 
 H                     4.92372  -5.89456  -2.00642 
 O                     5.37994  -3.65481  -0.53716 
 H                     3.08458  -7.47707  -1.57153 
 H                     1.51327  -7.10531   0.30152 
 O                     1.67379  -4.99346   2.00275 
 O                    -5.0743   -0.90213  -1.57327 
 H                    -7.26477  -0.82719  -3.16328 
 H                    -8.07962  -2.74986  -4.48163 
 H                    -6.86238  -4.89523  -4.4583 
 O                    -4.56582  -5.3242   -3.09043 
 H                    -4.92452   5.89443  -2.00655 
 O                    -5.38044   3.6548   -0.53701 
 H                    -3.08548   7.47714  -1.57197 
 H                    -1.51399   7.1057    0.30098 
 O                    -1.67418   4.99403   2.00246 
 O                     5.07375   0.90183  -1.57339 
 H                     7.2641    0.82631  -3.16358 
 H                     8.07944   2.74881  -4.48186 
 H                     6.86287   4.89455  -4.45833 
 O                     4.56653   5.32414  -3.09026 
 H                    -8.08008   2.74496   4.48284 
 H                     3.07992   7.479     1.57089 
 H                     8.08013  -2.74635   4.48281 
 H                    -3.0788   -7.47922   1.57025 
 C                    -4.99908  -6.44387  -3.83863 
 C                    -0.62968  -5.89198  -2.34513 
 C                     6.40323  -3.93303  -1.4765 
 C                     5.614     0.40704   1.70958 
 C                     5.00011   6.44373  -3.83841 
 C                     0.63018   5.8927   -2.34443 
 C                    -6.40377   3.93282  -1.47635 
 C                    -5.61254  -0.40764   1.70996 
 H                    -5.9816   -6.80305  -3.5036 
 H                    -4.25427  -7.22295  -3.66419 
 H                    -5.04659  -6.22177  -4.91352 
 H                    -0.17556  -5.48384  -3.24994 
 H                    -1.0183   -6.89829  -2.55602 
 H                     0.13199  -5.95037  -1.55889 
 H                     6.90282  -4.88601  -1.25836 
 H                     7.12413  -3.11878  -1.38107 
 H                     6.01846  -3.95663  -2.50519 
 H                     5.05273   1.04014   1.02374 
 H                     6.6763    0.43445   1.42864 
 H                     5.50635   0.7719    2.73957 
 H                     4.25558   7.22304  -3.66385 
 H                     5.04745   6.2217   -4.91332 
 H                     5.98279   6.80254  -3.50344 
 H                     0.17593   5.48482  -3.2493 
 H                     1.01902   6.89896  -2.55516 
 H                    -0.13147   5.95113  -1.55816 
 H                    -7.12462   3.11853  -1.38079 
 H                    -6.01904   3.95631  -2.50505 
 H                    -6.90342   4.8858   -1.25832 
 H                    -5.05106  -1.04056   1.02414 
 H                    -5.5046   -0.77231   2.73999 
 H                    -6.67486  -0.43562   1.42914 
 C                    -5.61396   0.40446  -1.7091 
 C                    -0.6341    5.89402   2.34352 
 C                     6.40009   3.9364    1.47794 
 C                     5.613    -0.40493  -1.70933 
 C                     0.63374  -5.8934    2.34409 
 C                    -6.39937  -3.93696   1.47827 
 C                     5.0014   -6.44166   3.83867 
 C                    -5.00304   6.44156   3.8383 
 H                    -6.67623   0.43152  -1.42799 
 H                    -5.50662   0.76929  -2.73914 
 H                    -5.05282   1.0378   -1.0234 
 H                     5.05173  -1.03812  -1.02359 
 H                     6.67528  -0.43233  -1.42832 
 H                     5.50544  -0.76969  -2.73936 
 H                     4.25706  -7.2211    3.66388 
 H                     5.04858  -6.21983   4.91362 
 H                     5.98419  -6.80022   3.50374 
 H                    -0.12827  -5.9532    1.55827 
 H                     0.17934  -5.48614   3.24916 
 H                     1.0244   -6.89898   2.55473 
 H                    -7.12068  -3.12297   1.38371 
 H                    -6.89888  -4.89011   1.26066 
 H                    -6.0134   -3.96047   2.50651 
 H                     7.12131   3.12235   1.38317 
 H                     6.01426   3.9598    2.50623 
 H                     6.89966   4.88953   1.2604 
 H                    -0.17962   5.48695   3.24864 
 H                    -1.02471   6.89965   2.55399 
 H                     0.12784   5.95365   1.55762 
 H                    -4.25904   7.22132   3.66345 
 H                    -5.986     6.79968   3.5034 
 H                    -5.05008   6.21974   4.91326 
 
 NAtoms=    193 NQM=    193 NQMF=      0 NMic=      0 NMicF=      0 NTot=    193.
                    Isotopes and Nuclear Properties:
 (Nuclear quadrupole moments (NQMom) in fm**2, nuclear magnetic moments (NMagM)
  in nuclear magnetons)

  Atom         1           2           3           4           5           6           7           8           9          10
 IAtWgt=          12          12          12          12          12          12          12          12          12          12
 AtmWgt=  12.0000000  12.0000000  12.0000000  12.0000000  12.0000000  12.0000000  12.0000000  12.0000000  12.0000000  12.0000000
 NucSpn=           0           0           0           0           0           0           0           0           0           0
 AtZEff=   0.0000000   0.0000000   0.0000000   0.0000000   0.0000000   0.0000000   0.0000000   0.0000000   0.0000000   0.0000000
 NQMom=    0.0000000   0.0000000   0.0000000   0.0000000   0.0000000   0.0000000   0.0000000   0.0000000   0.0000000   0.0000000
 NMagM=    0.0000000   0.0000000   0.0000000   0.0000000   0.0000000   0.0000000   0.0000000   0.0000000   0.0000000   0.0000000

  Atom        11          12          13          14          15          16          17          18          19          20
 IAtWgt=          12          12          12          12          12          12          12          12          12          12
 AtmWgt=  12.0000000  12.0000000  12.0000000  12.0000000  12.0000000  12.0000000  12.0000000  12.0000000  12.0000000  12.0000000
 NucSpn=           0           0           0           0           0           0           0           0           0           0
 AtZEff=   0.0000000   0.0000000   0.0000000   0.0000000   0.0000000   0.0000000   0.0000000   0.0000000   0.0000000   0.0000000
 NQMom=    0.0000000   0.0000000   0.0000000   0.0000000   0.0000000   0.0000000   0.0000000   0.0000000   0.0000000   0.0000000
 NMagM=    0.0000000   0.0000000   0.0000000   0.0000000   0.0000000   0.0000000   0.0000000   0.0000000   0.0000000   0.0000000

  Atom        21          22          23          24          25          26          27          28          29          30
 IAtWgt=          12          12          12          12          12          14          14          14          14          12
 AtmWgt=  12.0000000  12.0000000  12.0000000  12.0000000  12.0000000  14.0030740  14.0030740  14.0030740  14.0030740  12.0000000
 NucSpn=           0           0           0           0           0           2           2           2           2           0
 AtZEff=   0.0000000   0.0000000   0.0000000   0.0000000   0.0000000   0.0000000   0.0000000   0.0000000   0.0000000   0.0000000
 NQMom=    0.0000000   0.0000000   0.0000000   0.0000000   0.0000000   2.0440000   2.0440000   2.0440000   2.0440000   0.0000000
 NMagM=    0.0000000   0.0000000   0.0000000   0.0000000   0.0000000   0.4037610   0.4037610   0.4037610   0.4037610   0.0000000

  Atom        31          32          33          34          35          36          37          38          39          40
 IAtWgt=          12          12          12          12          12          12          12          12          12          12
 AtmWgt=  12.0000000  12.0000000  12.0000000  12.0000000  12.0000000  12.0000000  12.0000000  12.0000000  12.0000000  12.0000000
 NucSpn=           0           0           0           0           0           0           0           0           0           0
 AtZEff=   0.0000000   0.0000000   0.0000000   0.0000000   0.0000000   0.0000000   0.0000000   0.0000000   0.0000000   0.0000000
 NQMom=    0.0000000   0.0000000   0.0000000   0.0000000   0.0000000   0.0000000   0.0000000   0.0000000   0.0000000   0.0000000
 NMagM=    0.0000000   0.0000000   0.0000000   0.0000000   0.0000000   0.0000000   0.0000000   0.0000000   0.0000000   0.0000000

  Atom        41          42          43          44          45          46          47          48          49          50
 IAtWgt=          12          12          12          12          12          12          12          12          12          12
 AtmWgt=  12.0000000  12.0000000  12.0000000  12.0000000  12.0000000  12.0000000  12.0000000  12.0000000  12.0000000  12.0000000
 NucSpn=           0           0           0           0           0           0           0           0           0           0
 AtZEff=   0.0000000   0.0000000   0.0000000   0.0000000   0.0000000   0.0000000   0.0000000   0.0000000   0.0000000   0.0000000
 NQMom=    0.0000000   0.0000000   0.0000000   0.0000000   0.0000000   0.0000000   0.0000000   0.0000000   0.0000000   0.0000000
 NMagM=    0.0000000   0.0000000   0.0000000   0.0000000   0.0000000   0.0000000   0.0000000   0.0000000   0.0000000   0.0000000

  Atom        51          52          53          54          55          56          57          58          59          60
 IAtWgt=          12          12          12          12          12          12          12          12          12          12
 AtmWgt=  12.0000000  12.0000000  12.0000000  12.0000000  12.0000000  12.0000000  12.0000000  12.0000000  12.0000000  12.0000000
 NucSpn=           0           0           0           0           0           0           0           0           0           0
 AtZEff=   0.0000000   0.0000000   0.0000000   0.0000000   0.0000000   0.0000000   0.0000000   0.0000000   0.0000000   0.0000000
 NQMom=    0.0000000   0.0000000   0.0000000   0.0000000   0.0000000   0.0000000   0.0000000   0.0000000   0.0000000   0.0000000
 NMagM=    0.0000000   0.0000000   0.0000000   0.0000000   0.0000000   0.0000000   0.0000000   0.0000000   0.0000000   0.0000000

  Atom        61          62          63          64          65          66          67          68          69          70
 IAtWgt=          12          12          12          12          12          12          12          12          12          12
 AtmWgt=  12.0000000  12.0000000  12.0000000  12.0000000  12.0000000  12.0000000  12.0000000  12.0000000  12.0000000  12.0000000
 NucSpn=           0           0           0           0           0           0           0           0           0           0
 AtZEff=   0.0000000   0.0000000   0.0000000   0.0000000   0.0000000   0.0000000   0.0000000   0.0000000   0.0000000   0.0000000
 NQMom=    0.0000000   0.0000000   0.0000000   0.0000000   0.0000000   0.0000000   0.0000000   0.0000000   0.0000000   0.0000000
 NMagM=    0.0000000   0.0000000   0.0000000   0.0000000   0.0000000   0.0000000   0.0000000   0.0000000   0.0000000   0.0000000

  Atom        71          72          73          74          75          76          77          78          79          80
 IAtWgt=          12          12          12          12          12          12          12           1           1           1
 AtmWgt=  12.0000000  12.0000000  12.0000000  12.0000000  12.0000000  12.0000000  12.0000000   1.0078250   1.0078250   1.0078250
 NucSpn=           0           0           0           0           0           0           0           1           1           1
 AtZEff=   0.0000000   0.0000000   0.0000000   0.0000000   0.0000000   0.0000000   0.0000000   0.0000000   0.0000000   0.0000000
 NQMom=    0.0000000   0.0000000   0.0000000   0.0000000   0.0000000   0.0000000   0.0000000   0.0000000   0.0000000   0.0000000
 NMagM=    0.0000000   0.0000000   0.0000000   0.0000000   0.0000000   0.0000000   0.0000000   2.7928460   2.7928460   2.7928460

  Atom        81          82          83          84          85          86          87          88          89          90
 IAtWgt=           1           1           1           1           1           1           1           1           1           1
 AtmWgt=   1.0078250   1.0078250   1.0078250   1.0078250   1.0078250   1.0078250   1.0078250   1.0078250   1.0078250   1.0078250
 NucSpn=           1           1           1           1           1           1           1           1           1           1
 AtZEff=   0.0000000   0.0000000   0.0000000   0.0000000   0.0000000   0.0000000   0.0000000   0.0000000   0.0000000   0.0000000
 NQMom=    0.0000000   0.0000000   0.0000000   0.0000000   0.0000000   0.0000000   0.0000000   0.0000000   0.0000000   0.0000000
 NMagM=    2.7928460   2.7928460   2.7928460   2.7928460   2.7928460   2.7928460   2.7928460   2.7928460   2.7928460   2.7928460

  Atom        91          92          93          94          95          96          97          98          99         100
 IAtWgt=          16          16           1           1          16           1          16          16           1           1
 AtmWgt=  15.9949146  15.9949146   1.0078250   1.0078250  15.9949146   1.0078250  15.9949146  15.9949146   1.0078250   1.0078250
 NucSpn=           0           0           1           1           0           1           0           0           1           1
 AtZEff=   0.0000000   0.0000000   0.0000000   0.0000000   0.0000000   0.0000000   0.0000000   0.0000000   0.0000000   0.0000000
 NQMom=    0.0000000   0.0000000   0.0000000   0.0000000   0.0000000   0.0000000   0.0000000   0.0000000   0.0000000   0.0000000
 NMagM=    0.0000000   0.0000000   2.7928460   2.7928460   0.0000000   2.7928460   0.0000000   0.0000000   2.7928460   2.7928460

  Atom       101         102         103         104         105         106         107         108         109         110
 IAtWgt=          16           1          16           1          16           1          16           1           1          16
 AtmWgt=  15.9949146   1.0078250  15.9949146   1.0078250  15.9949146   1.0078250  15.9949146   1.0078250   1.0078250  15.9949146
 NucSpn=           0           1           0           1           0           1           0           1           1           0
 AtZEff=   0.0000000   0.0000000   0.0000000   0.0000000   0.0000000   0.0000000   0.0000000   0.0000000   0.0000000   0.0000000
 NQMom=    0.0000000   0.0000000   0.0000000   0.0000000   0.0000000   0.0000000   0.0000000   0.0000000   0.0000000   0.0000000
 NMagM=    0.0000000   2.7928460   0.0000000   2.7928460   0.0000000   2.7928460   0.0000000   2.7928460   2.7928460   0.0000000

  Atom       111         112         113         114         115         116         117         118         119         120
 IAtWgt=          16           1           1           1          16           1          16           1           1          16
 AtmWgt=  15.9949146   1.0078250   1.0078250   1.0078250  15.9949146   1.0078250  15.9949146   1.0078250   1.0078250  15.9949146
 NucSpn=           0           1           1           1           0           1           0           1           1           0
 AtZEff=   0.0000000   0.0000000   0.0000000   0.0000000   0.0000000   0.0000000   0.0000000   0.0000000   0.0000000   0.0000000
 NQMom=    0.0000000   0.0000000   0.0000000   0.0000000   0.0000000   0.0000000   0.0000000   0.0000000   0.0000000   0.0000000
 NMagM=    0.0000000   2.7928460   2.7928460   2.7928460   0.0000000   2.7928460   0.0000000   2.7928460   2.7928460   0.0000000

  Atom       121         122         123         124         125         126         127         128         129         130
 IAtWgt=          16           1           1           1          16           1           1           1           1          12
 AtmWgt=  15.9949146   1.0078250   1.0078250   1.0078250  15.9949146   1.0078250   1.0078250   1.0078250   1.0078250  12.0000000
 NucSpn=           0           1           1           1           0           1           1           1           1           0
 AtZEff=   0.0000000   0.0000000   0.0000000   0.0000000   0.0000000   0.0000000   0.0000000   0.0000000   0.0000000   0.0000000
 NQMom=    0.0000000   0.0000000   0.0000000   0.0000000   0.0000000   0.0000000   0.0000000   0.0000000   0.0000000   0.0000000
 NMagM=    0.0000000   2.7928460   2.7928460   2.7928460   0.0000000   2.7928460   2.7928460   2.7928460   2.7928460   0.0000000

  Atom       131         132         133         134         135         136         137         138         139         140
 IAtWgt=          12          12          12          12          12          12          12           1           1           1
 AtmWgt=  12.0000000  12.0000000  12.0000000  12.0000000  12.0000000  12.0000000  12.0000000   1.0078250   1.0078250   1.0078250
 NucSpn=           0           0           0           0           0           0           0           1           1           1
 AtZEff=   0.0000000   0.0000000   0.0000000   0.0000000   0.0000000   0.0000000   0.0000000   0.0000000   0.0000000   0.0000000
 NQMom=    0.0000000   0.0000000   0.0000000   0.0000000   0.0000000   0.0000000   0.0000000   0.0000000   0.0000000   0.0000000
 NMagM=    0.0000000   0.0000000   0.0000000   0.0000000   0.0000000   0.0000000   0.0000000   2.7928460   2.7928460   2.7928460

  Atom       141         142         143         144         145         146         147         148         149         150
 IAtWgt=           1           1           1           1           1           1           1           1           1           1
 AtmWgt=   1.0078250   1.0078250   1.0078250   1.0078250   1.0078250   1.0078250   1.0078250   1.0078250   1.0078250   1.0078250
 NucSpn=           1           1           1           1           1           1           1           1           1           1
 AtZEff=   0.0000000   0.0000000   0.0000000   0.0000000   0.0000000   0.0000000   0.0000000   0.0000000   0.0000000   0.0000000
 NQMom=    0.0000000   0.0000000   0.0000000   0.0000000   0.0000000   0.0000000   0.0000000   0.0000000   0.0000000   0.0000000
 NMagM=    2.7928460   2.7928460   2.7928460   2.7928460   2.7928460   2.7928460   2.7928460   2.7928460   2.7928460   2.7928460

  Atom       151         152         153         154         155         156         157         158         159         160
 IAtWgt=           1           1           1           1           1           1           1           1           1           1
 AtmWgt=   1.0078250   1.0078250   1.0078250   1.0078250   1.0078250   1.0078250   1.0078250   1.0078250   1.0078250   1.0078250
 NucSpn=           1           1           1           1           1           1           1           1           1           1
 AtZEff=   0.0000000   0.0000000   0.0000000   0.0000000   0.0000000   0.0000000   0.0000000   0.0000000   0.0000000   0.0000000
 NQMom=    0.0000000   0.0000000   0.0000000   0.0000000   0.0000000   0.0000000   0.0000000   0.0000000   0.0000000   0.0000000
 NMagM=    2.7928460   2.7928460   2.7928460   2.7928460   2.7928460   2.7928460   2.7928460   2.7928460   2.7928460   2.7928460

  Atom       161         162         163         164         165         166         167         168         169         170
 IAtWgt=           1          12          12          12          12          12          12          12          12           1
 AtmWgt=   1.0078250  12.0000000  12.0000000  12.0000000  12.0000000  12.0000000  12.0000000  12.0000000  12.0000000   1.0078250
 NucSpn=           1           0           0           0           0           0           0           0           0           1
 AtZEff=   0.0000000   0.0000000   0.0000000   0.0000000   0.0000000   0.0000000   0.0000000   0.0000000   0.0000000   0.0000000
 NQMom=    0.0000000   0.0000000   0.0000000   0.0000000   0.0000000   0.0000000   0.0000000   0.0000000   0.0000000   0.0000000
 NMagM=    2.7928460   0.0000000   0.0000000   0.0000000   0.0000000   0.0000000   0.0000000   0.0000000   0.0000000   2.7928460

  Atom       171         172         173         174         175         176         177         178         179         180
 IAtWgt=           1           1           1           1           1           1           1           1           1           1
 AtmWgt=   1.0078250   1.0078250   1.0078250   1.0078250   1.0078250   1.0078250   1.0078250   1.0078250   1.0078250   1.0078250
 NucSpn=           1           1           1           1           1           1           1           1           1           1
 AtZEff=   0.0000000   0.0000000   0.0000000   0.0000000   0.0000000   0.0000000   0.0000000   0.0000000   0.0000000   0.0000000
 NQMom=    0.0000000   0.0000000   0.0000000   0.0000000   0.0000000   0.0000000   0.0000000   0.0000000   0.0000000   0.0000000
 NMagM=    2.7928460   2.7928460   2.7928460   2.7928460   2.7928460   2.7928460   2.7928460   2.7928460   2.7928460   2.7928460

  Atom       181         182         183         184         185         186         187         188         189         190
 IAtWgt=           1           1           1           1           1           1           1           1           1           1
 AtmWgt=   1.0078250   1.0078250   1.0078250   1.0078250   1.0078250   1.0078250   1.0078250   1.0078250   1.0078250   1.0078250
 NucSpn=           1           1           1           1           1           1           1           1           1           1
 AtZEff=   0.0000000   0.0000000   0.0000000   0.0000000   0.0000000   0.0000000   0.0000000   0.0000000   0.0000000   0.0000000
 NQMom=    0.0000000   0.0000000   0.0000000   0.0000000   0.0000000   0.0000000   0.0000000   0.0000000   0.0000000   0.0000000
 NMagM=    2.7928460   2.7928460   2.7928460   2.7928460   2.7928460   2.7928460   2.7928460   2.7928460   2.7928460   2.7928460

  Atom       191         192         193
 IAtWgt=           1           1           1
 AtmWgt=   1.0078250   1.0078250   1.0078250
 NucSpn=           1           1           1
 AtZEff=   0.0000000   0.0000000   0.0000000
 NQMom=    0.0000000   0.0000000   0.0000000
 NMagM=    2.7928460   2.7928460   2.7928460
 Leave Link  101 at Mon Feb  2 22:20:32 2015, MaxMem= 2147483648 cpu:       3.1
 (Enter /opt/g09/l202.exe)
 Stoichiometry    C89H84N4O16
 Framework group  C1[X(C89H84N4O16)]
 Deg. of freedom   573
 Full point group                 C1      NOp   1
 Largest Abelian subgroup         C1      NOp   1
 Largest concise Abelian subgroup C1      NOp   1
                         Standard orientation:                         
 ---------------------------------------------------------------------
 Center     Atomic      Atomic             Coordinates (Angstroms)
 Number     Number       Type             X           Y           Z
 ---------------------------------------------------------------------
      1          6           0       -0.000038    0.000107   -0.000075
      2          6           0        0.860731   -0.827995    0.980131
      3          6           0        0.540416   -0.489927    2.309086
      4          6           0       -0.540040    0.490808    2.309066
      5          6           0       -0.860723    0.828412    0.980083
      6          6           0        0.860326    0.828734   -0.980254
      7          6           0        0.539887    0.490871   -2.309231
      8          6           0       -0.540201   -0.490277   -2.309237
      9          6           0       -0.860416   -0.828397   -0.980266
     10          6           0        1.875284    1.741297   -0.710473
     11          6           0        2.589939    2.311525   -1.781238
     12          6           0        2.262647    1.967685   -3.102133
     13          6           0        1.244201    1.060764   -3.370736
     14          6           0       -1.244444    1.060543    3.370592
     15          6           0       -2.263300    1.967001    3.102003
     16          6           0       -2.590935    2.310487    1.781102
     17          6           0       -1.876141    1.740480    0.710315
     18          6           0        1.875965   -1.740274    0.710396
     19          6           0        2.591001   -2.310021    1.781176
     20          6           0        2.263781   -1.965998    3.102046
     21          6           0        1.245086   -1.059351    3.370598
     22          6           0       -1.244648   -1.060017   -3.370731
     23          6           0       -2.262971   -1.967082   -3.102146
     24          6           0       -2.590009   -2.311230   -1.781269
     25          6           0       -1.875245   -1.741115   -0.710510
     26          7           0        3.665227    3.218266   -1.546548
     27          7           0       -3.666793    3.216590    1.546479
     28          7           0        3.666604   -3.216356    1.546544
     29          7           0       -3.665108   -3.218171   -1.546558
     30          6           0       -4.844728   -3.112898   -2.329940
     31          6           0        3.489192   -4.328702    0.685763
     32          6           0       -3.486668   -4.330679   -0.686189
     33          6           0        4.845963   -3.110618    2.330271
     34          6           0        3.487089    4.330696   -0.686031
     35          6           0        4.844804    3.112697   -2.329947
     36          6           0       -4.846115    3.110447    2.330176
     37          6           0       -3.489613    4.328935    0.685661
     38          6           0       -5.325664    4.185840    3.111614
     39          6           0       -6.499916    4.061098    3.866451
     40          6           0       -7.179946    2.846661    3.882499
     41          6           0       -6.720255    1.759270    3.143514
     42          6           0       -5.571983    1.895771    2.353918
     43          6           0        4.380850    4.578763    0.374729
     44          6           0        4.236473    5.712891    1.186510
     45          6           0        3.192783    6.600649    0.940722
     46          6           0        2.294554    6.385965   -0.104860
     47          6           0        2.449926    5.261588   -0.925124
     48          6           0        5.323937    4.188298   -3.111350
     49          6           0        6.498425    4.064135   -3.865916
     50          6           0        7.179117    2.850065   -3.881721
     51          6           0        6.719862    1.762480   -3.142752
     52          6           0        5.571343    1.898418   -2.353413
     53          6           0       -4.383980    4.576242   -0.374768
     54          6           0       -4.240707    5.710327   -1.186802
     55          6           0       -3.197514    6.598827   -0.941597
     56          6           0       -2.298699    6.384901    0.103639
     57          6           0       -2.452952    5.260543    0.924143
     58          6           0        2.452436   -5.260164    0.924405
     59          6           0        2.298026   -6.384596    0.104028
     60          6           0        3.196740   -6.598704   -0.941257
     61          6           0        4.239991   -5.710321   -1.186639
     62          6           0        4.383445   -4.576175   -0.374720
     63          6           0        5.572360   -1.896255    2.353859
     64          6           0        6.720723   -1.760186    3.143398
     65          6           0        7.179923   -2.847704    3.882507
     66          6           0        6.499334   -4.061828    3.866635
     67          6           0        5.325009   -4.186131    3.111830
     68          6           0       -2.449416   -5.261398   -0.925555
     69          6           0       -2.293799   -6.385874   -0.105471
     70          6           0       -3.191851   -6.600799    0.940216
     71          6           0       -4.235602   -5.713192    1.186290
     72          6           0       -4.380235   -4.578973    0.374675
     73          6           0       -5.571633   -1.898831   -2.353305
     74          6           0       -6.720244   -1.763195   -3.142559
     75          6           0       -7.179217   -2.850877   -3.881564
     76          6           0       -6.498150   -4.064735   -3.865872
     77          6           0       -5.323573   -4.188589   -3.111388
     78          1           0       -2.148843   -1.993341    0.309924
     79          1           0        2.149658   -1.992402   -0.310036
     80          1           0        2.814253   -2.429001    3.914674
     81          1           0        1.001041   -0.804636    4.399377
     82          1           0       -1.000083    0.806191    4.399386
     83          1           0       -2.813607    2.430257    3.914598
     84          1           0       -1.000706   -0.805237   -4.399518
     85          1           0       -2.813250   -2.430360   -3.914750
     86          1           0        1.000078    0.806194   -4.399532
     87          1           0        2.812850    2.431075   -3.914724
     88          1           0       -2.150188    1.992213   -0.310119
     89          1           0        2.149096    1.993278    0.309962
     90          1           0       -7.263968    0.822795    3.164527
     91          8           0       -5.074014    0.899391    1.573861
     92          8           0        5.377834    3.657988    0.537536
     93          1           0        4.919829    5.897600    2.006492
     94          1           0       -6.864674    4.891357    4.458890
     95          8           0       -4.568862    5.322097    3.090318
     96          1           0        1.509474    7.106234   -0.302698
     97          8           0        1.671896    4.994429   -2.003809
     98          8           0       -5.377269   -3.658312    0.537776
     99          1           0       -4.918811   -5.898078    2.006355
    100          1           0       -1.508674   -7.106033   -0.303531
    101          8           0       -1.671598   -4.993997   -2.004329
    102          1           0        7.264883   -0.823967    3.164270
    103          8           0        5.074806   -0.899743    1.573723
    104          1           0        6.863718   -4.892174    4.459180
    105          8           0        4.567678   -5.322032    3.090671
    106          1           0        4.923715   -5.894557   -2.006424
    107          8           0        5.379940   -3.654813   -0.537156
    108          1           0        3.084581   -7.477068   -1.571529
    109          1           0        1.513265   -7.105306    0.301515
    110          8           0        1.673790   -4.993460    2.002753
    111          8           0       -5.074299   -0.902128   -1.573266
    112          1           0       -7.264768   -0.827185   -3.163281
    113          1           0       -8.079616   -2.749863   -4.481628
    114          1           0       -6.862379   -4.895230   -4.458304
    115          8           0       -4.565816   -5.324204   -3.090427
    116          1           0       -4.924516    5.894426   -2.006546
    117          8           0       -5.380436    3.654799   -0.537005
    118          1           0       -3.085477    7.477137   -1.571966
    119          1           0       -1.513985    7.105700    0.300983
    120          8           0       -1.674182    4.994028    2.002460
    121          8           0        5.073750    0.901826   -1.573390
    122          1           0        7.264097    0.826305   -3.163579
    123          1           0        8.079439    2.748806   -4.481860
    124          1           0        6.862872    4.894549   -4.458328
    125          8           0        4.566529    5.324144   -3.090262
    126          1           0       -8.080083    2.744958    4.482840
    127          1           0        3.079916    7.478995    1.570893
    128          1           0        8.080128   -2.746346    4.482806
    129          1           0       -3.078797   -7.479223    1.570245
    130          6           0       -4.999076   -6.443869   -3.838632
    131          6           0       -0.629680   -5.891975   -2.345129
    132          6           0        6.403229   -3.933033   -1.476496
    133          6           0        5.613997    0.407037    1.709575
    134          6           0        5.000107    6.443725   -3.838413
    135          6           0        0.630176    5.892697   -2.344429
    136          6           0       -6.403773    3.932824   -1.476347
    137          6           0       -5.612542   -0.407640    1.709955
    138          1           0       -5.981605   -6.803049   -3.503603
    139          1           0       -4.254272   -7.222950   -3.664192
    140          1           0       -5.046590   -6.221774   -4.913517
    141          1           0       -0.175558   -5.483841   -3.249944
    142          1           0       -1.018303   -6.898287   -2.556023
    143          1           0        0.131992   -5.950368   -1.558885
    144          1           0        6.902817   -4.886013   -1.258357
    145          1           0        7.124126   -3.118778   -1.381065
    146          1           0        6.018463   -3.956626   -2.505187
    147          1           0        5.052731    1.040139    1.023744
    148          1           0        6.676301    0.434447    1.428643
    149          1           0        5.506353    0.771897    2.739571
    150          1           0        4.255582    7.223045   -3.663846
    151          1           0        5.047455    6.221699   -4.913319
    152          1           0        5.982786    6.802543   -3.503437
    153          1           0        0.175933    5.484822   -3.249303
    154          1           0        1.019018    6.898959   -2.555163
    155          1           0       -0.131469    5.951131   -1.558160
    156          1           0       -7.124616    3.118535   -1.380785
    157          1           0       -6.019040    3.956306   -2.505053
    158          1           0       -6.903423    4.885798   -1.258324
    159          1           0       -5.051057   -1.040557    1.024135
    160          1           0       -5.504597   -0.772309    2.739985
    161          1           0       -6.674862   -0.435619    1.429140
    162          6           0       -5.613963    0.404461   -1.709104
    163          6           0       -0.634099    5.894022    2.343522
    164          6           0        6.400086    3.936396    1.477937
    165          6           0        5.612997   -0.404926   -1.709326
    166          6           0        0.633739   -5.893401    2.344091
    167          6           0       -6.399373   -3.936959    1.478273
    168          6           0        5.001399   -6.441661    3.838668
    169          6           0       -5.003035    6.441558    3.838298
    170          1           0       -6.676227    0.431524   -1.427991
    171          1           0       -5.506618    0.769293   -2.739140
    172          1           0       -5.052822    1.037803   -1.023403
    173          1           0        5.051731   -1.038119   -1.023592
    174          1           0        6.675279   -0.432328   -1.428315
    175          1           0        5.505439   -0.769694   -2.739363
    176          1           0        4.257055   -7.221105    3.663880
    177          1           0        5.048579   -6.219828    4.913622
    178          1           0        5.984188   -6.800217    3.503737
    179          1           0       -0.128267   -5.953204    1.558270
    180          1           0        0.179335   -5.486138    3.249159
    181          1           0        1.024396   -6.898975    2.554730
    182          1           0       -7.120684   -3.122969    1.383713
    183          1           0       -6.898877   -4.890106    1.260657
    184          1           0       -6.013403   -3.960471    2.506513
    185          1           0        7.121308    3.122352    1.383165
    186          1           0        6.014255    3.959802    2.506232
    187          1           0        6.899661    4.889524    1.260395
    188          1           0       -0.179618    5.486947    3.248637
    189          1           0       -1.024709    6.899650    2.553991
    190          1           0        0.127844    5.953649    1.557623
    191          1           0       -4.259039    7.221323    3.663452
    192          1           0       -5.985996    6.799679    3.503401
    193          1           0       -5.050075    6.219736    4.913261
 ---------------------------------------------------------------------
 Rotational constants (GHZ):      0.0161443      0.0143548      0.0098872
 Leave Link  202 at Mon Feb  2 22:20:32 2015, MaxMem= 2147483648 cpu:       1.4
 (Enter /opt/g09/l301.exe)
 Standard basis: CC-pVDZ (5D, 7F)
 Ernie: Thresh=  0.10000D-02 Tol=  0.10000D-05 Strict=F.
 Ernie:  218 primitive shells out of 2818 were deleted.
 There are  1946 symmetry adapted basis functions of A   symmetry.
 Integral buffers will be    131072 words long.
 Raffenetti 2 integral format.
 Two-electron integral symmetry is turned on.
  1946 basis functions,  4185 primitive gaussians,  2055 cartesian basis functions
   387 alpha electrons      387 beta electrons
       nuclear repulsion energy     24121.6678489072 Hartrees.
 IExCor=  402 DFT=T Ex+Corr=B3LYP ExCW=0 ScaHFX=  0.200000
 ScaDFX=  0.800000  0.720000  1.000000  0.810000 ScalE2=  1.000000  1.000000
 IRadAn=      0 IRanWt=     -1 IRanGd=            0 ICorTp=0
 NAtoms=  193 NActive=  193 NUniq=  193 SFac= 7.50D-01 NAtFMM=   80 NAOKFM=T Big=T
 Leave Link  301 at Mon Feb  2 22:20:32 2015, MaxMem= 2147483648 cpu:       2.0
 (Enter /opt/g09/l302.exe)
 NPDir=0 NMtPBC=     1 NCelOv=     1 NCel=       1 NClECP=     1 NCelD=      1
         NCelK=      1 NCelE2=     1 NClLst=     1 CellRange=     0.0.
 One-electron integrals computed using PRISM.
 NBasis=  1946 RedAO= T  NBF=  1946
 NBsUse=  1946 1.00D-06 NBFU=  1946
 Precomputing XC quadrature grid using
 IXCGrd= 2 IRadAn=           0 IRanWt=          -1 IRanGd=           0 AccXCQ= 1.00D-10.
 NRdTot=   12608 NPtTot=     1616270 NUsed=     1707048 NTot=     1707080
 NSgBfM=  1415  1443  1459  1482  1502 NAtAll=   193   193.
 Leave Link  302 at Mon Feb  2 22:21:06 2015, MaxMem= 2147483648 cpu:     814.8
 (Enter /opt/g09/l303.exe)
 DipDrv:  MaxL=1.
 Leave Link  303 at Mon Feb  2 22:21:09 2015, MaxMem= 2147483648 cpu:      52.7
 (Enter /opt/g09/l401.exe)
 Harris functional with IExCor=  402 diagonalized for initial guess.
 ExpMin= 1.22D-01 ExpMax= 1.17D+04 ExpMxC= 4.01D+02 IAcc=1 IRadAn=         1 AccDes= 0.00D+00
 HarFok:  IExCor=  402 AccDes= 0.00D+00 IRadAn=         1 IDoV= 1
 ScaDFX=  1.000000  1.000000  1.000000  1.000000
 FoFCou: FMM=F IPFlag=           0 FMFlag=      100000 FMFlg1=        2001
         NFxFlg=           0 DoJE=T BraDBF=F KetDBF=T FulRan=T
         Omega=  0.000000  0.000000  1.000000  0.000000  0.000000 ICntrl=     500 IOpCl=  0
         NMat0=    1 NMatS0=    1 NMatT0=    0 NMatD0=    1 NMtDS0=    0 NMtDT0=    0
         I1Cent=           4 NGrid=           0.
 Petite list used in FoFCou.
 Harris En= -4864.82177253942    
 Initial guess orbital symmetries:
       Occupied  (A) (A) (A) (A) (A) (A) (A) (A) (A) (A) (A) (A)
                 (A) (A) (A) (A) (A) (A) (A) (A) (A) (A) (A) (A)
                 (A) (A) (A) (A) (A) (A) (A) (A) (A) (A) (A) (A)
                 (A) (A) (A) (A) (A) (A) (A) (A) (A) (A) (A) (A)
                 (A) (A) (A) (A) (A) (A) (A) (A) (A) (A) (A) (A)
                 (A) (A) (A) (A) (A) (A) (A) (A) (A) (A) (A) (A)
                 (A) (A) (A) (A) (A) (A) (A) (A) (A) (A) (A) (A)
                 (A) (A) (A) (A) (A) (A) (A) (A) (A) (A) (A) (A)
                 (A) (A) (A) (A) (A) (A) (A) (A) (A) (A) (A) (A)
                 (A) (A) (A) (A) (A) (A) (A) (A) (A) (A) (A) (A)
                 (A) (A) (A) (A) (A) (A) (A) (A) (A) (A) (A) (A)
                 (A) (A) (A) (A) (A) (A) (A) (A) (A) (A) (A) (A)
                 (A) (A) (A) (A) (A) (A) (A) (A) (A) (A) (A) (A)
                 (A) (A) (A) (A) (A) (A) (A) (A) (A) (A) (A) (A)
                 (A) (A) (A) (A) (A) (A) (A) (A) (A) (A) (A) (A)
                 (A) (A) (A) (A) (A) (A) (A) (A) (A) (A) (A) (A)
                 (A) (A) (A) (A) (A) (A) (A) (A) (A) (A) (A) (A)
                 (A) (A) (A) (A) (A) (A) (A) (A) (A) (A) (A) (A)
                 (A) (A) (A) (A) (A) (A) (A) (A) (A) (A) (A) (A)
                 (A) (A) (A) (A) (A) (A) (A) (A) (A) (A) (A) (A)
                 (A) (A) (A) (A) (A) (A) (A) (A) (A) (A) (A) (A)
                 (A) (A) (A) (A) (A) (A) (A) (A) (A) (A) (A) (A)
                 (A) (A) (A) (A) (A) (A) (A) (A) (A) (A) (A) (A)
                 (A) (A) (A) (A) (A) (A) (A) (A) (A) (A) (A) (A)
                 (A) (A) (A) (A) (A) (A) (A) (A) (A) (A) (A) (A)
                 (A) (A) (A) (A) (A) (A) (A) (A) (A) (A) (A) (A)
                 (A) (A) (A) (A) (A) (A) (A) (A) (A) (A) (A) (A)
                 (A) (A) (A) (A) (A) (A) (A) (A) (A) (A) (A) (A)
                 (A) (A) (A) (A) (A) (A) (A) (A) (A) (A) (A) (A)
                 (A) (A) (A) (A) (A) (A) (A) (A) (A) (A) (A) (A)
                 (A) (A) (A) (A) (A) (A) (A) (A) (A) (A) (A) (A)
                 (A) (A) (A) (A) (A) (A) (A) (A) (A) (A) (A) (A)
                 (A) (A) (A)
       Virtual   (A) (A) (A) (A) (A) (A) (A) (A) (A) (A) (A) (A)
                 (A) (A) (A) (A) (A) (A) (A) (A) (A) (A) (A) (A)
                 (A) (A) (A) (A) (A) (A) (A) (A) (A) (A) (A) (A)
                 (A) (A) (A) (A) (A) (A) (A) (A) (A) (A) (A) (A)
                 (A) (A) (A) (A) (A) (A) (A) (A) (A) (A) (A) (A)
                 (A) (A) (A) (A) (A) (A) (A) (A) (A) (A) (A) (A)
                 (A) (A) (A) (A) (A) (A) (A) (A) (A) (A) (A) (A)
                 (A) (A) (A) (A) (A) (A) (A) (A) (A) (A) (A) (A)
                 (A) (A) (A) (A) (A) (A) (A) (A) (A) (A) (A) (A)
                 (A) (A) (A) (A) (A) (A) (A) (A) (A) (A) (A) (A)
                 (A) (A) (A) (A) (A) (A) (A) (A) (A) (A) (A) (A)
                 (A) (A) (A) (A) (A) (A) (A) (A) (A) (A) (A) (A)
                 (A) (A) (A) (A) (A) (A) (A) (A) (A) (A) (A) (A)
                 (A) (A) (A) (A) (A) (A) (A) (A) (A) (A) (A) (A)
                 (A) (A) (A) (A) (A) (A) (A) (A) (A) (A) (A) (A)
                 (A) (A) (A) (A) (A) (A) (A) (A) (A) (A) (A) (A)
                 (A) (A) (A) (A) (A) (A) (A) (A) (A) (A) (A) (A)
                 (A) (A) (A) (A) (A) (A) (A) (A) (A) (A) (A) (A)
                 (A) (A) (A) (A) (A) (A) (A) (A) (A) (A) (A) (A)
                 (A) (A) (A) (A) (A) (A) (A) (A) (A) (A) (A) (A)
                 (A) (A) (A) (A) (A) (A) (A) (A) (A) (A) (A) (A)
                 (A) (A) (A) (A) (A) (A) (A) (A) (A) (A) (A) (A)
                 (A) (A) (A) (A) (A) (A) (A) (A) (A) (A) (A) (A)
                 (A) (A) (A) (A) (A) (A) (A) (A) (A) (A) (A) (A)
                 (A) (A) (A) (A) (A) (A) (A) (A) (A) (A) (A) (A)
                 (A) (A) (A) (A) (A) (A) (A) (A) (A) (A) (A) (A)
                 (A) (A) (A) (A) (A) (A) (A) (A) (A) (A) (A) (A)
                 (A) (A) (A) (A) (A) (A) (A) (A) (A) (A) (A) (A)
                 (A) (A) (A) (A) (A) (A) (A) (A) (A) (A) (A) (A)
                 (A) (A) (A) (A) (A) (A) (A) (A) (A) (A) (A) (A)
                 (A) (A) (A) (A) (A) (A) (A) (A) (A) (A) (A) (A)
                 (A) (A) (A) (A) (A) (A) (A) (A) (A) (A) (A) (A)
                 (A) (A) (A) (A) (A) (A) (A) (A) (A) (A) (A) (A)
                 (A) (A) (A) (A) (A) (A) (A) (A) (A) (A) (A) (A)
                 (A) (A) (A) (A) (A) (A) (A) (A) (A) (A) (A) (A)
                 (A) (A) (A) (A) (A) (A) (A) (A) (A) (A) (A) (A)
                 (A) (A) (A) (A) (A) (A) (A) (A) (A) (A) (A) (A)
                 (A) (A) (A) (A) (A) (A) (A) (A) (A) (A) (A) (A)
                 (A) (A) (A) (A) (A) (A) (A) (A) (A) (A) (A) (A)
                 (A) (A) (A) (A) (A) (A) (A) (A) (A) (A) (A) (A)
                 (A) (A) (A) (A) (A) (A) (A) (A) (A) (A) (A) (A)
                 (A) (A) (A) (A) (A) (A) (A) (A) (A) (A) (A) (A)
                 (A) (A) (A) (A) (A) (A) (A) (A) (A) (A) (A) (A)
                 (A) (A) (A) (A) (A) (A) (A) (A) (A) (A) (A) (A)
                 (A) (A) (A) (A) (A) (A) (A) (A) (A) (A) (A) (A)
                 (A) (A) (A) (A) (A) (A) (A) (A) (A) (A) (A) (A)
                 (A) (A) (A) (A) (A) (A) (A) (A) (A) (A) (A) (A)
                 (A) (A) (A) (A) (A) (A) (A) (A) (A) (A) (A) (A)
                 (A) (A) (A) (A) (A) (A) (A) (A) (A) (A) (A) (A)
                 (A) (A) (A) (A) (A) (A) (A) (A) (A) (A) (A) (A)
                 (A) (A) (A) (A) (A) (A) (A) (A) (A) (A) (A) (A)
                 (A) (A) (A) (A) (A) (A) (A) (A) (A) (A) (A) (A)
                 (A) (A) (A) (A) (A) (A) (A) (A) (A) (A) (A) (A)
                 (A) (A) (A) (A) (A) (A) (A) (A) (A) (A) (A) (A)
                 (A) (A) (A) (A) (A) (A) (A) (A) (A) (A) (A) (A)
                 (A) (A) (A) (A) (A) (A) (A) (A) (A) (A) (A) (A)
                 (A) (A) (A) (A) (A) (A) (A) (A) (A) (A) (A) (A)
                 (A) (A) (A) (A) (A) (A) (A) (A) (A) (A) (A) (A)
                 (A) (A) (A) (A) (A) (A) (A) (A) (A) (A) (A) (A)
                 (A) (A) (A) (A) (A) (A) (A) (A) (A) (A) (A) (A)
                 (A) (A) (A) (A) (A) (A) (A) (A) (A) (A) (A) (A)
                 (A) (A) (A) (A) (A) (A) (A) (A) (A) (A) (A) (A)
                 (A) (A) (A) (A) (A) (A) (A) (A) (A) (A) (A) (A)
                 (A) (A) (A) (A) (A) (A) (A) (A) (A) (A) (A) (A)
                 (A) (A) (A) (A) (A) (A) (A) (A) (A) (A) (A) (A)
                 (A) (A) (A) (A) (A) (A) (A) (A) (A) (A) (A) (A)
                 (A) (A) (A) (A) (A) (A) (A) (A) (A) (A) (A) (A)
                 (A) (A) (A) (A) (A) (A) (A) (A) (A) (A) (A) (A)
                 (A) (A) (A) (A) (A) (A) (A) (A) (A) (A) (A) (A)
                 (A) (A) (A) (A) (A) (A) (A) (A) (A) (A) (A) (A)
                 (A) (A) (A) (A) (A) (A) (A) (A) (A) (A) (A) (A)
                 (A) (A) (A) (A) (A) (A) (A) (A) (A) (A) (A) (A)
                 (A) (A) (A) (A) (A) (A) (A) (A) (A) (A) (A) (A)
                 (A) (A) (A) (A) (A) (A) (A) (A) (A) (A) (A) (A)
                 (A) (A) (A) (A) (A) (A) (A) (A) (A) (A) (A) (A)
                 (A) (A) (A) (A) (A) (A) (A) (A) (A) (A) (A) (A)
                 (A) (A) (A) (A) (A) (A) (A) (A) (A) (A) (A) (A)
                 (A) (A) (A) (A) (A) (A) (A) (A) (A) (A) (A) (A)
                 (A) (A) (A) (A) (A) (A) (A) (A) (A) (A) (A) (A)
                 (A) (A) (A) (A) (A) (A) (A) (A) (A) (A) (A) (A)
                 (A) (A) (A) (A) (A) (A) (A) (A) (A) (A) (A) (A)
                 (A) (A) (A) (A) (A) (A) (A) (A) (A) (A) (A) (A)
                 (A) (A) (A) (A) (A) (A) (A) (A) (A) (A) (A) (A)
                 (A) (A) (A) (A) (A) (A) (A) (A) (A) (A) (A) (A)
                 (A) (A) (A) (A) (A) (A) (A) (A) (A) (A) (A) (A)
                 (A) (A) (A) (A) (A) (A) (A) (A) (A) (A) (A) (A)
                 (A) (A) (A) (A) (A) (A) (A) (A) (A) (A) (A) (A)
                 (A) (A) (A) (A) (A) (A) (A) (A) (A) (A) (A) (A)
                 (A) (A) (A) (A) (A) (A) (A) (A) (A) (A) (A) (A)
                 (A) (A) (A) (A) (A) (A) (A) (A) (A) (A) (A) (A)
                 (A) (A) (A) (A) (A) (A) (A) (A) (A) (A) (A) (A)
                 (A) (A) (A) (A) (A) (A) (A) (A) (A) (A) (A) (A)
                 (A) (A) (A) (A) (A) (A) (A) (A) (A) (A) (A) (A)
                 (A) (A) (A) (A) (A) (A) (A) (A) (A) (A) (A) (A)
                 (A) (A) (A) (A) (A) (A) (A) (A) (A) (A) (A) (A)
                 (A) (A) (A) (A) (A) (A) (A) (A) (A) (A) (A) (A)
                 (A) (A) (A) (A) (A) (A) (A) (A) (A) (A) (A) (A)
                 (A) (A) (A) (A) (A) (A) (A) (A) (A) (A) (A) (A)
                 (A) (A) (A) (A) (A) (A) (A) (A) (A) (A) (A) (A)
                 (A) (A) (A) (A) (A) (A) (A) (A) (A) (A) (A) (A)
                 (A) (A) (A) (A) (A) (A) (A) (A) (A) (A) (A) (A)
                 (A) (A) (A) (A) (A) (A) (A) (A) (A) (A) (A) (A)
                 (A) (A) (A) (A) (A) (A) (A) (A) (A) (A) (A) (A)
                 (A) (A) (A) (A) (A) (A) (A) (A) (A) (A) (A) (A)
                 (A) (A) (A) (A) (A) (A) (A) (A) (A) (A) (A) (A)
                 (A) (A) (A) (A) (A) (A) (A) (A) (A) (A) (A) (A)
                 (A) (A) (A) (A) (A) (A) (A) (A) (A) (A) (A) (A)
                 (A) (A) (A) (A) (A) (A) (A) (A) (A) (A) (A) (A)
                 (A) (A) (A) (A) (A) (A) (A) (A) (A) (A) (A) (A)
                 (A) (A) (A) (A) (A) (A) (A) (A) (A) (A) (A) (A)
                 (A) (A) (A) (A) (A) (A) (A) (A) (A) (A) (A) (A)
                 (A) (A) (A) (A) (A) (A) (A) (A) (A) (A) (A) (A)
                 (A) (A) (A) (A) (A) (A) (A) (A) (A) (A) (A) (A)
                 (A) (A) (A) (A) (A) (A) (A) (A) (A) (A) (A) (A)
                 (A) (A) (A) (A) (A) (A) (A) (A) (A) (A) (A) (A)
                 (A) (A) (A) (A) (A) (A) (A) (A) (A) (A) (A) (A)
                 (A) (A) (A) (A) (A) (A) (A) (A) (A) (A) (A) (A)
                 (A) (A) (A) (A) (A) (A) (A) (A) (A) (A) (A) (A)
                 (A) (A) (A) (A) (A) (A) (A) (A) (A) (A) (A) (A)
                 (A) (A) (A) (A) (A) (A) (A) (A) (A) (A) (A) (A)
                 (A) (A) (A) (A) (A) (A) (A) (A) (A) (A) (A) (A)
                 (A) (A) (A) (A) (A) (A) (A) (A) (A) (A) (A) (A)
                 (A) (A) (A) (A) (A) (A) (A) (A) (A) (A) (A) (A)
                 (A) (A) (A) (A) (A) (A) (A) (A) (A) (A) (A) (A)
                 (A) (A) (A) (A) (A) (A) (A) (A) (A) (A) (A) (A)
                 (A) (A) (A) (A) (A) (A) (A) (A) (A) (A) (A) (A)
                 (A) (A) (A) (A) (A) (A) (A) (A) (A) (A) (A) (A)
                 (A) (A) (A) (A) (A) (A) (A) (A) (A) (A) (A) (A)
                 (A) (A) (A) (A) (A) (A) (A) (A) (A) (A) (A) (A)
                 (A) (A) (A) (A) (A) (A) (A) (A) (A) (A) (A)
 The electronic state of the initial guess is 1-A.
 Leave Link  401 at Mon Feb  2 22:21:42 2015, MaxMem= 2147483648 cpu:     786.1
 (Enter /opt/g09/l502.exe)
 Closed shell SCF:
 Requested convergence on RMS density matrix=1.00D-08 within 128 cycles.
 Requested convergence on MAX density matrix=1.00D-06.
 Requested convergence on             energy=1.00D-06.
 No special actions if energy rises.
 Using DIIS extrapolation, IDIIS=  1040.
 Integral symmetry usage will be decided dynamically.
      1705298 words used for storage of precomputed grid.
 IEnd=    14457407 IEndB=    14457407 NGot=  2147483648 MDV=  2137267962
 LenX=  2137267962 LenY=  2133042882
 Fock matrices will be formed incrementally for  20 cycles.
 Integral accuracy reduced to 1.0D-05 until final iterations.

 Cycle   1  Pass 0  IDiag  1:
 FoFCou: FMM=T IPFlag=           0 FMFlag=      100000 FMFlg1=        2001
         NFxFlg=           0 DoJE=F BraDBF=F KetDBF=F FulRan=T
         Omega=  0.000000  0.000000  1.000000  0.000000  0.000000 ICntrl=       0 IOpCl=  0
         NMat0=    1 NMatS0=    1 NMatT0=    0 NMatD0=    1 NMtDS0=    0 NMtDT0=    0
         I1Cent=           0 NGrid=           0.
 Symmetry not used in FoFCou.
 FMM levels:  10  Number of levels for PrismC:   9
 E= -4862.60445056814    
 DIIS: error= 2.03D-02 at cycle   1 NSaved=   1.
 NSaved= 1 IEnMin= 1 EnMin= -4862.60445056814     IErMin= 1 ErrMin= 2.03D-02
 ErrMax= 2.03D-02 EMaxC= 1.00D-01 BMatC= 1.85D+00 BMatP= 1.85D+00
 IDIUse=3 WtCom= 7.97D-01 WtEn= 2.03D-01
 Coeff-Com:  0.100D+01
 Coeff-En:   0.100D+01
 Coeff:      0.100D+01
 Gap=     0.175 Goal=   None    Shift=    0.000
 GapD=    0.175 DampG=1.000 DampE=0.500 DampFc=0.5000 IDamp=-1.
 Damping current iteration by 5.00D-01
 RMSDP=1.94D-03 MaxDP=1.58D-01              OVMax= 2.32D-01

 Cycle   2  Pass 0  IDiag  1:
 RMSU=  6.61D-04    CP:  9.68D-01
 E= -4863.55926055368     Delta-E=       -0.954809985535 Rises=F Damp=T
 DIIS: error= 4.61D-03 at cycle   2 NSaved=   2.
 NSaved= 2 IEnMin= 2 EnMin= -4863.55926055368     IErMin= 2 ErrMin= 4.61D-03
 ErrMax= 4.61D-03 EMaxC= 1.00D-01 BMatC= 1.09D-01 BMatP= 1.85D+00
 IDIUse=3 WtCom= 9.54D-01 WtEn= 4.61D-02
 Coeff-Com:  0.364D-01 0.964D+00
 Coeff-En:   0.450D-01 0.955D+00
 Coeff:      0.368D-01 0.963D+00
 Gap=     0.179 Goal=   None    Shift=    0.000
 RMSDP=6.18D-04 MaxDP=9.88D-02 DE=-9.55D-01 OVMax= 1.72D-01

 Cycle   3  Pass 0  IDiag  1:
 RMSU=  4.01D-04    CP:  9.49D-01  1.21D+00
 E= -4864.49412435758     Delta-E=       -0.934863803901 Rises=F Damp=F
 DIIS: error= 9.57D-03 at cycle   3 NSaved=   3.
 NSaved= 3 IEnMin= 3 EnMin= -4864.49412435758     IErMin= 2 ErrMin= 4.61D-03
 ErrMax= 9.57D-03 EMaxC= 1.00D-01 BMatC= 1.70D-01 BMatP= 1.09D-01
 IDIUse=3 WtCom= 9.28D-02 WtEn= 9.07D-01
 Coeff-Com: -0.242D-01 0.576D+00 0.448D+00
 Coeff-En:   0.000D+00 0.000D+00 0.100D+01
 Coeff:     -0.224D-02 0.534D-01 0.949D+00
 Gap=     0.170 Goal=   None    Shift=    0.000
 RMSDP=7.88D-04 MaxDP=5.81D-02 DE=-9.35D-01 OVMax= 1.97D-01

 Cycle   4  Pass 0  IDiag  1:
 RMSU=  3.96D-04    CP:  9.50D-01  1.21D+00  2.50D-02
 E= -4863.76103893707     Delta-E=        0.733085420507 Rises=F Damp=F
 DIIS: error= 2.05D-02 at cycle   4 NSaved=   4.
 NSaved= 4 IEnMin= 3 EnMin= -4864.49412435758     IErMin= 2 ErrMin= 4.61D-03
 ErrMax= 2.05D-02 EMaxC= 1.00D-01 BMatC= 8.28D-01 BMatP= 1.09D-01
 IDIUse=2 WtCom= 0.00D+00 WtEn= 1.00D+00
 Coeff-En:   0.000D+00 0.000D+00 0.770D+00 0.230D+00
 Coeff:      0.000D+00 0.000D+00 0.770D+00 0.230D+00
 Gap=     0.149 Goal=   None    Shift=    0.000
 RMSDP=4.08D-04 MaxDP=3.06D-02 DE= 7.33D-01 OVMax= 1.04D-01

 Cycle   5  Pass 0  IDiag  1:
 RMSU=  5.07D-05    CP:  9.51D-01  1.20D+00  4.91D-01  4.62D-01
 E= -4864.61641198184     Delta-E=       -0.855373044764 Rises=F Damp=F
 DIIS: error= 5.56D-03 at cycle   5 NSaved=   5.
 NSaved= 5 IEnMin= 5 EnMin= -4864.61641198184     IErMin= 2 ErrMin= 4.61D-03
 ErrMax= 5.56D-03 EMaxC= 1.00D-01 BMatC= 5.92D-02 BMatP= 1.09D-01
 IDIUse=3 WtCom= 9.44D-01 WtEn= 5.56D-02
 Coeff-Com:  0.605D-02 0.152D-01 0.355D+00-0.109D-01 0.635D+00
 Coeff-En:   0.000D+00 0.000D+00 0.313D+00 0.000D+00 0.687D+00
 Coeff:      0.571D-02 0.143D-01 0.352D+00-0.103D-01 0.638D+00
 Gap=     0.142 Goal=   None    Shift=    0.000
 RMSDP=1.49D-04 MaxDP=1.58D-02 DE=-8.55D-01 OVMax= 3.76D-02

 Cycle   6  Pass 0  IDiag  1:
 RMSU=  2.53D-05    CP:  9.50D-01  1.20D+00  6.72D-01  2.86D-01  6.79D-01
 E= -4864.68056310338     Delta-E=       -0.064151121544 Rises=F Damp=F
 DIIS: error= 1.08D-03 at cycle   6 NSaved=   6.
 NSaved= 6 IEnMin= 6 EnMin= -4864.68056310338     IErMin= 6 ErrMin= 1.08D-03
 ErrMax= 1.08D-03 EMaxC= 1.00D-01 BMatC= 1.07D-03 BMatP= 5.92D-02
 IDIUse=3 WtCom= 9.89D-01 WtEn= 1.08D-02
 Coeff-Com:  0.307D-02-0.702D-02 0.136D+00-0.532D-01 0.441D+00 0.480D+00
 Coeff-En:   0.000D+00 0.000D+00 0.000D+00 0.000D+00 0.000D+00 0.100D+01
 Coeff:      0.304D-02-0.695D-02 0.134D+00-0.526D-01 0.436D+00 0.486D+00
 Gap=     0.142 Goal=   None    Shift=    0.000
 RMSDP=2.22D-05 MaxDP=2.32D-03 DE=-6.42D-02 OVMax= 7.25D-03

 Cycle   7  Pass 0  IDiag  1:
 RMSU=  7.23D-06    CP:  9.50D-01  1.20D+00  6.74D-01  2.88D-01  8.04D-01
                    CP:  5.15D-01
 E= -4864.68157707039     Delta-E=       -0.001013967008 Rises=F Damp=F
 DIIS: error= 3.87D-04 at cycle   7 NSaved=   7.
 NSaved= 7 IEnMin= 7 EnMin= -4864.68157707039     IErMin= 7 ErrMin= 3.87D-04
 ErrMax= 3.87D-04 EMaxC= 1.00D-01 BMatC= 8.51D-05 BMatP= 1.07D-03
 IDIUse=3 WtCom= 9.96D-01 WtEn= 3.87D-03
 Coeff-Com:  0.166D-02-0.515D-02 0.703D-01-0.355D-01 0.257D+00 0.321D+00
 Coeff-Com:  0.391D+00
 Coeff-En:   0.000D+00 0.000D+00 0.000D+00 0.000D+00 0.000D+00 0.485D-02
 Coeff-En:   0.995D+00
 Coeff:      0.165D-02-0.513D-02 0.700D-01-0.354D-01 0.256D+00 0.320D+00
 Coeff:      0.394D+00
 Gap=     0.142 Goal=   None    Shift=    0.000
 RMSDP=6.78D-06 MaxDP=6.16D-04 DE=-1.01D-03 OVMax= 2.12D-03

 Initial convergence to 1.0D-05 achieved.  Increase integral accuracy.
 Cycle   8  Pass 1  IDiag  1:
 E= -4864.68092791176     Delta-E=        0.000649158628 Rises=F Damp=F
 DIIS: error= 6.67D-04 at cycle   1 NSaved=   1.
 NSaved= 1 IEnMin= 1 EnMin= -4864.68092791176     IErMin= 1 ErrMin= 6.67D-04
 ErrMax= 6.67D-04 EMaxC= 1.00D-01 BMatC= 2.28D-04 BMatP= 2.28D-04
 IDIUse=3 WtCom= 9.93D-01 WtEn= 6.67D-03
 Coeff-Com:  0.100D+01
 Coeff-En:   0.100D+01
 Coeff:      0.100D+01
 Gap=     0.142 Goal=   None    Shift=    0.000
 RMSDP=6.78D-06 MaxDP=6.16D-04 DE= 6.49D-04 OVMax= 1.96D-03

 Cycle   9  Pass 1  IDiag  1:
 RMSU=  1.49D-04    CP:  9.98D-01
 E= -4864.68109036091     Delta-E=       -0.000162449152 Rises=F Damp=F
 DIIS: error= 3.08D-04 at cycle   2 NSaved=   2.
 NSaved= 2 IEnMin= 2 EnMin= -4864.68109036091     IErMin= 2 ErrMin= 3.08D-04
 ErrMax= 3.08D-04 EMaxC= 1.00D-01 BMatC= 4.11D-05 BMatP= 2.28D-04
 IDIUse=3 WtCom= 9.97D-01 WtEn= 3.08D-03
 Coeff-Com:  0.186D+00 0.814D+00
 Coeff-En:   0.000D+00 0.100D+01
 Coeff:      0.185D+00 0.815D+00
 Gap=     0.142 Goal=   None    Shift=    0.000
 RMSDP=1.19D-05 MaxDP=1.76D-03 DE=-1.62D-04 OVMax= 3.72D-03

 Cycle  10  Pass 1  IDiag  1:
 RMSU=  8.32D-06    CP:  9.98D-01  1.01D+00
 E= -4864.68096024251     Delta-E=        0.000130118398 Rises=F Damp=F
 DIIS: error= 6.27D-04 at cycle   3 NSaved=   3.
 NSaved= 3 IEnMin= 2 EnMin= -4864.68109036091     IErMin= 2 ErrMin= 3.08D-04
 ErrMax= 6.27D-04 EMaxC= 1.00D-01 BMatC= 1.57D-04 BMatP= 4.11D-05
 IDIUse=3 WtCom= 2.85D-01 WtEn= 7.15D-01
 Coeff-Com: -0.334D-02 0.664D+00 0.340D+00
 Coeff-En:   0.000D+00 0.724D+00 0.276D+00
 Coeff:     -0.955D-03 0.707D+00 0.294D+00
 Gap=     0.142 Goal=   None    Shift=    0.000
 RMSDP=6.58D-06 MaxDP=8.65D-04 DE= 1.30D-04 OVMax= 2.10D-03

 Cycle  11  Pass 1  IDiag  1:
 RMSU=  5.90D-07    CP:  9.98D-01  1.01D+00  4.48D-01
 E= -4864.68113067349     Delta-E=       -0.000170430976 Rises=F Damp=F
 DIIS: error= 9.37D-05 at cycle   4 NSaved=   4.
 NSaved= 4 IEnMin= 4 EnMin= -4864.68113067349     IErMin= 4 ErrMin= 9.37D-05
 ErrMax= 9.37D-05 EMaxC= 1.00D-01 BMatC= 5.06D-06 BMatP= 4.11D-05
 IDIUse=1 WtCom= 1.00D+00 WtEn= 0.00D+00
 Coeff-Com: -0.383D-02 0.435D+00 0.153D+00 0.416D+00
 Coeff:     -0.383D-02 0.435D+00 0.153D+00 0.416D+00
 Gap=     0.142 Goal=   None    Shift=    0.000
 RMSDP=1.37D-06 MaxDP=1.64D-04 DE=-1.70D-04 OVMax= 4.12D-04

 Cycle  12  Pass 1  IDiag  1:
 RMSU=  2.33D-07    CP:  9.98D-01  1.01D+00  3.38D-01  6.76D-01
 E= -4864.68113611959     Delta-E=       -0.000005446105 Rises=F Damp=F
 DIIS: error= 2.22D-06 at cycle   5 NSaved=   5.
 NSaved= 5 IEnMin= 5 EnMin= -4864.68113611959     IErMin= 5 ErrMin= 2.22D-06
 ErrMax= 2.22D-06 EMaxC= 1.00D-01 BMatC= 9.61D-09 BMatP= 5.06D-06
 IDIUse=1 WtCom= 1.00D+00 WtEn= 0.00D+00
 Coeff-Com: -0.164D-02 0.175D+00 0.568D-01 0.196D+00 0.574D+00
 Coeff:     -0.164D-02 0.175D+00 0.568D-01 0.196D+00 0.574D+00
 Gap=     0.142 Goal=   None    Shift=    0.000
 RMSDP=9.66D-08 MaxDP=7.25D-06 DE=-5.45D-06 OVMax= 2.27D-05

 Cycle  13  Pass 1  IDiag  1:
 RMSU=  5.75D-08    CP:  9.98D-01  1.01D+00  3.39D-01  6.96D-01  8.55D-01
 E= -4864.68113612742     Delta-E=       -0.000000007822 Rises=F Damp=F
 DIIS: error= 9.04D-07 at cycle   6 NSaved=   6.
 NSaved= 6 IEnMin= 6 EnMin= -4864.68113612742     IErMin= 6 ErrMin= 9.04D-07
 ErrMax= 9.04D-07 EMaxC= 1.00D-01 BMatC= 2.26D-09 BMatP= 9.61D-09
 IDIUse=1 WtCom= 1.00D+00 WtEn= 0.00D+00
 Coeff-Com: -0.566D-03 0.576D-01 0.176D-01 0.715D-01 0.349D+00 0.505D+00
 Coeff:     -0.566D-03 0.576D-01 0.176D-01 0.715D-01 0.349D+00 0.505D+00
 Gap=     0.142 Goal=   None    Shift=    0.000
 RMSDP=3.77D-08 MaxDP=2.52D-06 DE=-7.82D-09 OVMax= 1.18D-05

 Cycle  14  Pass 1  IDiag  1:
 RMSU=  1.94D-08    CP:  9.98D-01  1.01D+00  3.39D-01  6.95D-01  8.88D-01
                    CP:  7.13D-01
 E= -4864.68113613030     Delta-E=       -0.000000002881 Rises=F Damp=F
 DIIS: error= 3.75D-07 at cycle   7 NSaved=   7.
 NSaved= 7 IEnMin= 7 EnMin= -4864.68113613030     IErMin= 7 ErrMin= 3.75D-07
 ErrMax= 3.75D-07 EMaxC= 1.00D-01 BMatC= 3.60D-10 BMatP= 2.26D-09
 IDIUse=1 WtCom= 1.00D+00 WtEn= 0.00D+00
 Coeff-Com: -0.654D-04 0.500D-02 0.946D-03 0.101D-01 0.120D+00 0.322D+00
 Coeff-Com:  0.542D+00
 Coeff:     -0.654D-04 0.500D-02 0.946D-03 0.101D-01 0.120D+00 0.322D+00
 Coeff:      0.542D+00
 Gap=     0.142 Goal=   None    Shift=    0.000
 RMSDP=1.51D-08 MaxDP=2.62D-06 DE=-2.88D-09 OVMax= 4.12D-06

 Cycle  15  Pass 1  IDiag  1:
 RMSU=  6.38D-09    CP:  9.98D-01  1.01D+00  3.39D-01  6.97D-01  8.90D-01
                    CP:  7.68D-01  6.02D-01
 E= -4864.68113613135     Delta-E=       -0.000000001051 Rises=F Damp=F
 DIIS: error= 2.12D-07 at cycle   8 NSaved=   8.
 NSaved= 8 IEnMin= 8 EnMin= -4864.68113613135     IErMin= 8 ErrMin= 2.12D-07
 ErrMax= 2.12D-07 EMaxC= 1.00D-01 BMatC= 5.69D-11 BMatP= 3.60D-10
 IDIUse=1 WtCom= 1.00D+00 WtEn= 0.00D+00
 Coeff-Com:  0.208D-04-0.312D-02-0.127D-02-0.181D-02 0.365D-01 0.151D+00
 Coeff-Com:  0.353D+00 0.466D+00
 Coeff:      0.208D-04-0.312D-02-0.127D-02-0.181D-02 0.365D-01 0.151D+00
 Coeff:      0.353D+00 0.466D+00
 Gap=     0.142 Goal=   None    Shift=    0.000
 RMSDP=5.84D-09 MaxDP=4.00D-07 DE=-1.05D-09 OVMax= 1.63D-06

 SCF Done:  E(RB3LYP) =  -4864.68113613     A.U. after   15 cycles
             Convg  =    0.5840D-08             -V/T =  2.0064
 KE= 4.833525860561D+03 PE=-5.958514480288D+04 EE= 2.576526995728D+04
 Leave Link  502 at Mon Feb  2 23:00:52 2015, MaxMem= 2147483648 cpu:   56332.5
 (Enter /opt/g09/l601.exe)
 Copying SCF densities to generalized density rwf, IOpCl= 0 IROHF=0.

 **********************************************************************

            Population analysis using the SCF density.

 **********************************************************************

 Orbital symmetries:
       Occupied  (A) (A) (A) (A) (A) (A) (A) (A) (A) (A) (A) (A)
                 (A) (A) (A) (A) (A) (A) (A) (A) (A) (A) (A) (A)
                 (A) (A) (A) (A) (A) (A) (A) (A) (A) (A) (A) (A)
                 (A) (A) (A) (A) (A) (A) (A) (A) (A) (A) (A) (A)
                 (A) (A) (A) (A) (A) (A) (A) (A) (A) (A) (A) (A)
                 (A) (A) (A) (A) (A) (A) (A) (A) (A) (A) (A) (A)
                 (A) (A) (A) (A) (A) (A) (A) (A) (A) (A) (A) (A)
                 (A) (A) (A) (A) (A) (A) (A) (A) (A) (A) (A) (A)
                 (A) (A) (A) (A) (A) (A) (A) (A) (A) (A) (A) (A)
                 (A) (A) (A) (A) (A) (A) (A) (A) (A) (A) (A) (A)
                 (A) (A) (A) (A) (A) (A) (A) (A) (A) (A) (A) (A)
                 (A) (A) (A) (A) (A) (A) (A) (A) (A) (A) (A) (A)
                 (A) (A) (A) (A) (A) (A) (A) (A) (A) (A) (A) (A)
                 (A) (A) (A) (A) (A) (A) (A) (A) (A) (A) (A) (A)
                 (A) (A) (A) (A) (A) (A) (A) (A) (A) (A) (A) (A)
                 (A) (A) (A) (A) (A) (A) (A) (A) (A) (A) (A) (A)
                 (A) (A) (A) (A) (A) (A) (A) (A) (A) (A) (A) (A)
                 (A) (A) (A) (A) (A) (A) (A) (A) (A) (A) (A) (A)
                 (A) (A) (A) (A) (A) (A) (A) (A) (A) (A) (A) (A)
                 (A) (A) (A) (A) (A) (A) (A) (A) (A) (A) (A) (A)
                 (A) (A) (A) (A) (A) (A) (A) (A) (A) (A) (A) (A)
                 (A) (A) (A) (A) (A) (A) (A) (A) (A) (A) (A) (A)
                 (A) (A) (A) (A) (A) (A) (A) (A) (A) (A) (A) (A)
                 (A) (A) (A) (A) (A) (A) (A) (A) (A) (A) (A) (A)
                 (A) (A) (A) (A) (A) (A) (A) (A) (A) (A) (A) (A)
                 (A) (A) (A) (A) (A) (A) (A) (A) (A) (A) (A) (A)
                 (A) (A) (A) (A) (A) (A) (A) (A) (A) (A) (A) (A)
                 (A) (A) (A) (A) (A) (A) (A) (A) (A) (A) (A) (A)
                 (A) (A) (A) (A) (A) (A) (A) (A) (A) (A) (A) (A)
                 (A) (A) (A) (A) (A) (A) (A) (A) (A) (A) (A) (A)
                 (A) (A) (A) (A) (A) (A) (A) (A) (A) (A) (A) (A)
                 (A) (A) (A) (A) (A) (A) (A) (A) (A) (A) (A) (A)
                 (A) (A) (A)
       Virtual   (A) (A) (A) (A) (A) (A) (A) (A) (A) (A) (A) (A)
                 (A) (A) (A) (A) (A) (A) (A) (A) (A) (A) (A) (A)
                 (A) (A) (A) (A) (A) (A) (A) (A) (A) (A) (A) (A)
                 (A) (A) (A) (A) (A) (A) (A) (A) (A) (A) (A) (A)
                 (A) (A) (A) (A) (A) (A) (A) (A) (A) (A) (A) (A)
                 (A) (A) (A) (A) (A) (A) (A) (A) (A) (A) (A) (A)
                 (A) (A) (A) (A) (A) (A) (A) (A) (A) (A) (A) (A)
                 (A) (A) (A) (A) (A) (A) (A) (A) (A) (A) (A) (A)
                 (A) (A) (A) (A) (A) (A) (A) (A) (A) (A) (A) (A)
                 (A) (A) (A) (A) (A) (A) (A) (A) (A) (A) (A) (A)
                 (A) (A) (A) (A) (A) (A) (A) (A) (A) (A) (A) (A)
                 (A) (A) (A) (A) (A) (A) (A) (A) (A) (A) (A) (A)
                 (A) (A) (A) (A) (A) (A) (A) (A) (A) (A) (A) (A)
                 (A) (A) (A) (A) (A) (A) (A) (A) (A) (A) (A) (A)
                 (A) (A) (A) (A) (A) (A) (A) (A) (A) (A) (A) (A)
                 (A) (A) (A) (A) (A) (A) (A) (A) (A) (A) (A) (A)
                 (A) (A) (A) (A) (A) (A) (A) (A) (A) (A) (A) (A)
                 (A) (A) (A) (A) (A) (A) (A) (A) (A) (A) (A) (A)
                 (A) (A) (A) (A) (A) (A) (A) (A) (A) (A) (A) (A)
                 (A) (A) (A) (A) (A) (A) (A) (A) (A) (A) (A) (A)
                 (A) (A) (A) (A) (A) (A) (A) (A) (A) (A) (A) (A)
                 (A) (A) (A) (A) (A) (A) (A) (A) (A) (A) (A) (A)
                 (A) (A) (A) (A) (A) (A) (A) (A) (A) (A) (A) (A)
                 (A) (A) (A) (A) (A) (A) (A) (A) (A) (A) (A) (A)
                 (A) (A) (A) (A) (A) (A) (A) (A) (A) (A) (A) (A)
                 (A) (A) (A) (A) (A) (A) (A) (A) (A) (A) (A) (A)
                 (A) (A) (A) (A) (A) (A) (A) (A) (A) (A) (A) (A)
                 (A) (A) (A) (A) (A) (A) (A) (A) (A) (A) (A) (A)
                 (A) (A) (A) (A) (A) (A) (A) (A) (A) (A) (A) (A)
                 (A) (A) (A) (A) (A) (A) (A) (A) (A) (A) (A) (A)
                 (A) (A) (A) (A) (A) (A) (A) (A) (A) (A) (A) (A)
                 (A) (A) (A) (A) (A) (A) (A) (A) (A) (A) (A) (A)
                 (A) (A) (A) (A) (A) (A) (A) (A) (A) (A) (A) (A)
                 (A) (A) (A) (A) (A) (A) (A) (A) (A) (A) (A) (A)
                 (A) (A) (A) (A) (A) (A) (A) (A) (A) (A) (A) (A)
                 (A) (A) (A) (A) (A) (A) (A) (A) (A) (A) (A) (A)
                 (A) (A) (A) (A) (A) (A) (A) (A) (A) (A) (A) (A)
                 (A) (A) (A) (A) (A) (A) (A) (A) (A) (A) (A) (A)
                 (A) (A) (A) (A) (A) (A) (A) (A) (A) (A) (A) (A)
                 (A) (A) (A) (A) (A) (A) (A) (A) (A) (A) (A) (A)
                 (A) (A) (A) (A) (A) (A) (A) (A) (A) (A) (A) (A)
                 (A) (A) (A) (A) (A) (A) (A) (A) (A) (A) (A) (A)
                 (A) (A) (A) (A) (A) (A) (A) (A) (A) (A) (A) (A)
                 (A) (A) (A) (A) (A) (A) (A) (A) (A) (A) (A) (A)
                 (A) (A) (A) (A) (A) (A) (A) (A) (A) (A) (A) (A)
                 (A) (A) (A) (A) (A) (A) (A) (A) (A) (A) (A) (A)
                 (A) (A) (A) (A) (A) (A) (A) (A) (A) (A) (A) (A)
                 (A) (A) (A) (A) (A) (A) (A) (A) (A) (A) (A) (A)
                 (A) (A) (A) (A) (A) (A) (A) (A) (A) (A) (A) (A)
                 (A) (A) (A) (A) (A) (A) (A) (A) (A) (A) (A) (A)
                 (A) (A) (A) (A) (A) (A) (A) (A) (A) (A) (A) (A)
                 (A) (A) (A) (A) (A) (A) (A) (A) (A) (A) (A) (A)
                 (A) (A) (A) (A) (A) (A) (A) (A) (A) (A) (A) (A)
                 (A) (A) (A) (A) (A) (A) (A) (A) (A) (A) (A) (A)
                 (A) (A) (A) (A) (A) (A) (A) (A) (A) (A) (A) (A)
                 (A) (A) (A) (A) (A) (A) (A) (A) (A) (A) (A) (A)
                 (A) (A) (A) (A) (A) (A) (A) (A) (A) (A) (A) (A)
                 (A) (A) (A) (A) (A) (A) (A) (A) (A) (A) (A) (A)
                 (A) (A) (A) (A) (A) (A) (A) (A) (A) (A) (A) (A)
                 (A) (A) (A) (A) (A) (A) (A) (A) (A) (A) (A) (A)
                 (A) (A) (A) (A) (A) (A) (A) (A) (A) (A) (A) (A)
                 (A) (A) (A) (A) (A) (A) (A) (A) (A) (A) (A) (A)
                 (A) (A) (A) (A) (A) (A) (A) (A) (A) (A) (A) (A)
                 (A) (A) (A) (A) (A) (A) (A) (A) (A) (A) (A) (A)
                 (A) (A) (A) (A) (A) (A) (A) (A) (A) (A) (A) (A)
                 (A) (A) (A) (A) (A) (A) (A) (A) (A) (A) (A) (A)
                 (A) (A) (A) (A) (A) (A) (A) (A) (A) (A) (A) (A)
                 (A) (A) (A) (A) (A) (A) (A) (A) (A) (A) (A) (A)
                 (A) (A) (A) (A) (A) (A) (A) (A) (A) (A) (A) (A)
                 (A) (A) (A) (A) (A) (A) (A) (A) (A) (A) (A) (A)
                 (A) (A) (A) (A) (A) (A) (A) (A) (A) (A) (A) (A)
                 (A) (A) (A) (A) (A) (A) (A) (A) (A) (A) (A) (A)
                 (A) (A) (A) (A) (A) (A) (A) (A) (A) (A) (A) (A)
                 (A) (A) (A) (A) (A) (A) (A) (A) (A) (A) (A) (A)
                 (A) (A) (A) (A) (A) (A) (A) (A) (A) (A) (A) (A)
                 (A) (A) (A) (A) (A) (A) (A) (A) (A) (A) (A) (A)
                 (A) (A) (A) (A) (A) (A) (A) (A) (A) (A) (A) (A)
                 (A) (A) (A) (A) (A) (A) (A) (A) (A) (A) (A) (A)
                 (A) (A) (A) (A) (A) (A) (A) (A) (A) (A) (A) (A)
                 (A) (A) (A) (A) (A) (A) (A) (A) (A) (A) (A) (A)
                 (A) (A) (A) (A) (A) (A) (A) (A) (A) (A) (A) (A)
                 (A) (A) (A) (A) (A) (A) (A) (A) (A) (A) (A) (A)
                 (A) (A) (A) (A) (A) (A) (A) (A) (A) (A) (A) (A)
                 (A) (A) (A) (A) (A) (A) (A) (A) (A) (A) (A) (A)
                 (A) (A) (A) (A) (A) (A) (A) (A) (A) (A) (A) (A)
                 (A) (A) (A) (A) (A) (A) (A) (A) (A) (A) (A) (A)
                 (A) (A) (A) (A) (A) (A) (A) (A) (A) (A) (A) (A)
                 (A) (A) (A) (A) (A) (A) (A) (A) (A) (A) (A) (A)
                 (A) (A) (A) (A) (A) (A) (A) (A) (A) (A) (A) (A)
                 (A) (A) (A) (A) (A) (A) (A) (A) (A) (A) (A) (A)
                 (A) (A) (A) (A) (A) (A) (A) (A) (A) (A) (A) (A)
                 (A) (A) (A) (A) (A) (A) (A) (A) (A) (A) (A) (A)
                 (A) (A) (A) (A) (A) (A) (A) (A) (A) (A) (A) (A)
                 (A) (A) (A) (A) (A) (A) (A) (A) (A) (A) (A) (A)
                 (A) (A) (A) (A) (A) (A) (A) (A) (A) (A) (A) (A)
                 (A) (A) (A) (A) (A) (A) (A) (A) (A) (A) (A) (A)
                 (A) (A) (A) (A) (A) (A) (A) (A) (A) (A) (A) (A)
                 (A) (A) (A) (A) (A) (A) (A) (A) (A) (A) (A) (A)
[...]
 Alpha virt. eigenvalues --    2.38365   2.38979   2.39541   2.39646   2.39683
 Alpha virt. eigenvalues --    2.39846   2.39954   2.40154   2.40164   2.40190
 Alpha virt. eigenvalues --    2.40455   2.40533   2.40542   2.40629   2.41038
 Alpha virt. eigenvalues --    2.41150   2.41266   2.41385   2.41442   2.41473
 Alpha virt. eigenvalues --    2.41650   2.41977   2.42284   2.42312   2.42829
 Alpha virt. eigenvalues --    2.42860   2.43123   2.43211   2.43928   2.44072
 Alpha virt. eigenvalues --    2.44366   2.44561   2.44562   2.44644   2.45239
 Alpha virt. eigenvalues --    2.45334   2.45454   2.45491   2.45746   2.45801
 Alpha virt. eigenvalues --    2.46502   2.47019   2.47108   2.47129   2.47624
 Alpha virt. eigenvalues --    2.47658   2.47671   2.47950   2.48085   2.48151
 Alpha virt. eigenvalues --    2.48345   2.48487   2.48718   2.48728   2.48794
 Alpha virt. eigenvalues --    2.49112   2.49276   2.49299   2.49452   2.49634
 Alpha virt. eigenvalues --    2.49776   2.49903   2.50595   2.51379   2.51662
 Alpha virt. eigenvalues --    2.51719   2.51922   2.52341   2.54679   2.55224
 Alpha virt. eigenvalues --    2.55364   2.55402   2.55607   2.55729   2.56201
 Alpha virt. eigenvalues --    2.56349   2.57193   2.57344   2.57751   2.58473
 Alpha virt. eigenvalues --    2.58830   2.59055   2.59407   2.59437   2.60060
 Alpha virt. eigenvalues --    2.60616   2.60998   2.61829   2.61848   2.61902
 Alpha virt. eigenvalues --    2.63234   2.63718   2.63853   2.63931   2.64772
 Alpha virt. eigenvalues --    2.65234   2.65543   2.66104   2.67096   2.67847
 Alpha virt. eigenvalues --    2.67878   2.67992   2.68046   2.68626   2.68785
 Alpha virt. eigenvalues --    2.68843   2.68971   2.69218   2.69650   2.69790
 Alpha virt. eigenvalues --    2.69922   2.70833   2.72139   2.72150   2.72207
 Alpha virt. eigenvalues --    2.73567   2.74832   2.75055   2.75268   2.75744
 Alpha virt. eigenvalues --    2.76242   2.76348   2.76440   2.76761   2.77122
 Alpha virt. eigenvalues --    2.77226   2.77592   2.77782   2.78840   2.78894
 Alpha virt. eigenvalues --    2.79074   2.79085   2.79300   2.79417   2.80513
 Alpha virt. eigenvalues --    2.81405   2.81476   2.82014   2.84294   2.85766
 Alpha virt. eigenvalues --    2.85894   2.86157   2.87406   2.87568   2.87987
 Alpha virt. eigenvalues --    2.88266   2.88596   2.88817   2.88898   2.89061
 Alpha virt. eigenvalues --    2.89449   2.90356   2.90504   2.90770   2.90978
 Alpha virt. eigenvalues --    2.91075   2.91278   2.91440   2.91727   2.92375
 Alpha virt. eigenvalues --    2.92858   2.92985   2.93729   2.94285   2.94312
 Alpha virt. eigenvalues --    2.96737   2.97080   2.97253   3.00143   3.00396
 Alpha virt. eigenvalues --    3.03775   3.03856   3.03916   3.04121   3.04168
 Alpha virt. eigenvalues --    3.04577   3.04578   3.04609   3.04996   3.05163
 Alpha virt. eigenvalues --    3.05405   3.05532   3.05651   3.05864   3.06008
 Alpha virt. eigenvalues --    3.06025   3.06287   3.06305   3.07132   3.07413
 Alpha virt. eigenvalues --    3.07426   3.07449   3.08025   3.08983   3.09298
 Alpha virt. eigenvalues --    3.09417   3.10151   3.10171   3.10391   3.10519
 Alpha virt. eigenvalues --    3.10966   3.11744   3.11843   3.12133   3.13833
 Alpha virt. eigenvalues --    3.23729   3.23749   3.23851   3.23870   3.24779
 Alpha virt. eigenvalues --    3.24960   3.25217   3.25287   3.38473   3.38479
 Alpha virt. eigenvalues --    3.38574   3.38614   3.40949   3.41339   3.41702
 Alpha virt. eigenvalues --    3.41771   3.42019   3.42589   3.42702   3.42829
 Alpha virt. eigenvalues --    3.42897   3.43035   3.43229   3.43304   3.43379
 Alpha virt. eigenvalues --    3.44334   3.45821   3.46019   3.46048   3.46280
 Alpha virt. eigenvalues --    3.46539   3.46638   3.46837   3.46868   3.57396
 Alpha virt. eigenvalues --    3.57425   3.68972   3.68982   3.69140   3.69182
 Alpha virt. eigenvalues --    3.69638   3.69761   3.70089   3.70211
          Condensed to atoms (all electrons):
 Mulliken atomic charges:
              1
     1  C   -0.333615
     2  C    0.099169
     3  C    0.048971
     4  C    0.048988
     5  C    0.099177
     6  C    0.099181
     7  C    0.048978
     8  C    0.048968
     9  C    0.099172
    10  C    0.030290
    11  C    0.133434
    12  C    0.079072
    13  C   -0.019752
    14  C   -0.019748
    15  C    0.079061
    16  C    0.133456
    17  C    0.030271
    18  C    0.030226
    19  C    0.133542
    20  C    0.079004
    21  C   -0.019749
    22  C   -0.019755
    23  C    0.079052
    24  C    0.133467
    25  C    0.030253
    26  N   -0.282188
    27  N   -0.282180
    28  N   -0.282153
    29  N   -0.282184
    30  C    0.059365
    31  C    0.056928
    32  C    0.056937
    33  C    0.059280
    34  C    0.056980
    35  C    0.059384
    36  C    0.059350
    37  C    0.056997
    38  C    0.123259
    39  C   -0.019649
    40  C    0.046326
    41  C   -0.008914
    42  C    0.151016
    43  C    0.128537
    44  C   -0.009938
    45  C    0.046427
    46  C   -0.029850
    47  C    0.156821
    48  C    0.123254
    49  C   -0.019643
    50  C    0.046323
    51  C   -0.008913
    52  C    0.151002
    53  C    0.128522
    54  C   -0.009920
    55  C    0.046423
    56  C   -0.029870
    57  C    0.156809
    58  C    0.156863
    59  C   -0.029882
    60  C    0.046431
    61  C   -0.009919
    62  C    0.128510
    63  C    0.151047
    64  C   -0.008930
    65  C    0.046333
    66  C   -0.019651
    67  C    0.123282
    68  C    0.156843
    69  C   -0.029858
    70  C    0.046432
    71  C   -0.009939
    72  C    0.128542
    73  C    0.151008
    74  C   -0.008921
    75  C    0.046328
    76  C   -0.019644
    77  C    0.123261
    78  H   -0.053221
    79  H   -0.053216
    80  H   -0.050738
    81  H   -0.065483
    82  H   -0.065483
    83  H   -0.050753
    84  H   -0.065480
    85  H   -0.050749
    86  H   -0.065482
    87  H   -0.050756
    88  H   -0.053217
    89  H   -0.053219
    90  H   -0.046384
    91  O   -0.278672
    92  O   -0.283279
    93  H   -0.044629
    94  H   -0.045636
    95  O   -0.280656
    96  H   -0.040329
    97  O   -0.271076
    98  O   -0.283276
    99  H   -0.044630
   100  H   -0.040328
   101  O   -0.271078
   102  H   -0.046376
   103  O   -0.278650
   104  H   -0.045634
   105  O   -0.280650
   106  H   -0.044625
   107  O   -0.283296
   108  H   -0.045418
   109  H   -0.040337
   110  O   -0.271067
   111  O   -0.278666
   112  H   -0.046382
   113  H   -0.045161
   114  H   -0.045638
   115  O   -0.280651
   116  H   -0.044626
   117  O   -0.283295
   118  H   -0.045420
   119  H   -0.040339
   120  O   -0.271071
   121  O   -0.278679
   122  H   -0.046387
   123  H   -0.045163
   124  H   -0.045638
   125  O   -0.280651
   126  H   -0.045159
   127  H   -0.045425
   128  H   -0.045153
   129  H   -0.045425
   130  C    0.137034
   131  C    0.123405
   132  C    0.129226
   133  C    0.095630
   134  C    0.137034
   135  C    0.123415
   136  C    0.129227
   137  C    0.095650
   138  H    0.022730
   139  H    0.030617
   140  H    0.021696
   141  H    0.034631
   142  H    0.012837
   143  H    0.039816
   144  H    0.028196
   145  H    0.033338
   146  H    0.025049
   147  H    0.072579
   148  H    0.017021
   149  H    0.020953
   150  H    0.030618
   151  H    0.021695
   152  H    0.022730
   153  H    0.034634
   154  H    0.012840
   155  H    0.039793
   156  H    0.033339
   157  H    0.025047
   158  H    0.028193
   159  H    0.072581
   160  H    0.020948
   161  H    0.017025
   162  C    0.095642
   163  C    0.123423
   164  C    0.129228
   165  C    0.095643
   166  C    0.123411
   167  C    0.129230
   168  C    0.137023
   169  C    0.137026
   170  H    0.017014
   171  H    0.020949
   172  H    0.072583
   173  H    0.072594
   174  H    0.017014
   175  H    0.020950
   176  H    0.030616
   177  H    0.021701
   178  H    0.022735
   179  H    0.039780
   180  H    0.034628
   181  H    0.012838
   182  H    0.033332
   183  H    0.028190
   184  H    0.025051
   185  H    0.033333
   186  H    0.025051
   187  H    0.028189
   188  H    0.034628
   189  H    0.012841
   190  H    0.039758
   191  H    0.030615
   192  H    0.022731
   193  H    0.021698
 Sum of Mulliken atomic charges =   0.00000
 Mulliken charges with hydrogens summed into heavy atoms:
              1
     1  C   -0.333615
     2  C    0.099169
     3  C    0.048971
     4  C    0.048988
     5  C    0.099177
     6  C    0.099181
     7  C    0.048978
     8  C    0.048968
     9  C    0.099172
    10  C   -0.022929
    11  C    0.133434
    12  C    0.028317
    13  C   -0.085234
    14  C   -0.085231
    15  C    0.028308
    16  C    0.133456
    17  C   -0.022946
    18  C   -0.022990
    19  C    0.133542
    20  C    0.028266
    21  C   -0.085233
    22  C   -0.085236
    23  C    0.028303
    24  C    0.133467
    25  C   -0.022968
    26  N   -0.282188
    27  N   -0.282180
    28  N   -0.282153
    29  N   -0.282184
    30  C    0.059365
    31  C    0.056928
    32  C    0.056937
    33  C    0.059280
    34  C    0.056980
    35  C    0.059384
    36  C    0.059350
    37  C    0.056997
    38  C    0.123259
    39  C   -0.065285
    40  C    0.001167
    41  C   -0.055298
    42  C    0.151016
    43  C    0.128537
    44  C   -0.054567
    45  C    0.001002
    46  C   -0.070179
    47  C    0.156821
    48  C    0.123254
    49  C   -0.065282
    50  C    0.001160
    51  C   -0.055300
    52  C    0.151002
    53  C    0.128522
    54  C   -0.054546
    55  C    0.001003
    56  C   -0.070209
    57  C    0.156809
    58  C    0.156863
    59  C   -0.070219
    60  C    0.001013
    61  C   -0.054544
    62  C    0.128510
    63  C    0.151047
    64  C   -0.055307
    65  C    0.001180
    66  C   -0.065286
    67  C    0.123282
    68  C    0.156843
    69  C   -0.070186
    70  C    0.001006
    71  C   -0.054568
    72  C    0.128542
    73  C    0.151008
    74  C   -0.055303
    75  C    0.001167
    76  C   -0.065282
    77  C    0.123261
    91  O   -0.278672
    92  O   -0.283279
    95  O   -0.280656
    97  O   -0.271076
    98  O   -0.283276
   101  O   -0.271078
   103  O   -0.278650
   105  O   -0.280650
   107  O   -0.283296
   110  O   -0.271067
   111  O   -0.278666
   115  O   -0.280651
   117  O   -0.283295
   120  O   -0.271071
   121  O   -0.278679
   125  O   -0.280651
   130  C    0.212076
   131  C    0.210690
   132  C    0.215809
   133  C    0.206184
   134  C    0.212077
   135  C    0.210681
   136  C    0.215806
   137  C    0.206205
   162  C    0.206187
   163  C    0.210649
   164  C    0.215801
   165  C    0.206200
   166  C    0.210657
   167  C    0.215803
   168  C    0.212075
   169  C    0.212071
 Sum of Mulliken charges with hydrogens summed into heavy atoms =   0.00000
 Electronic spatial extent (au):  <R**2>=         114736.2567
 Charge=              0.0000 electrons
 Dipole moment (field-independent basis, Debye):
    X=              0.0012    Y=             -0.0024    Z=              0.0030  Tot=              0.0040
 Quadrupole moment (field-independent basis, Debye-Ang):
   XX=           -554.3275   YY=           -524.7630   ZZ=           -590.0384
   XY=             -0.0339   XZ=              0.0011   YZ=             -0.0029
 Traceless Quadrupole moment (field-independent basis, Debye-Ang):
   XX=              2.0488   YY=             31.6133   ZZ=            -33.6621
   XY=             -0.0339   XZ=              0.0011   YZ=             -0.0029
 Octapole moment (field-independent basis, Debye-Ang**2):
  XXX=              0.0524  YYY=             -0.0360  ZZZ=              0.0373  XYY=              0.0078
  XXY=              0.0380  XXZ=              0.0965  XZZ=              0.0081  YZZ=             -0.0453
  YYZ=              0.1005  XYZ=            -19.4249
 Hexadecapole moment (field-independent basis, Debye-Ang**3):
 XXXX=         -67256.4766 YYYY=         -55885.8704 ZZZZ=         -20561.0304 XXXY=             -1.5772
 XXXZ=              0.0933 YYYX=             -0.6893 YYYZ=             -0.1307 ZZZX=              0.0062
 ZZZY=             -0.0599 XXYY=         -20204.7431 XXZZ=         -14159.8036 YYZZ=         -11932.7866
 XXYZ=             -0.0248 YYXZ=             -0.1644 ZZXY=             -0.0647
 N-N= 2.412166784891D+04 E-N=-5.958514533897D+04  KE= 4.833525860561D+03
 Leave Link  601 at Mon Feb  2 23:00:56 2015, MaxMem= 2147483648 cpu:     104.9
 (Enter /opt/g09/l9999.exe)
 1\1\GINC-CHPC-SCANDIUM\SP\RB3LYP\CC-pVDZ\C89H84N4O16\JARVIST\02-Feb-20
 15\0\\#p sp B3LYP/cc-pVDZ\\Auto Spiro; and yes I said yes I will Yes.\
 \0,1\C,0,-0.000038,0.000107,-0.000075\C,0,0.860731,-0.827995,0.980131\
 C,0,0.540416,-0.489927,2.309086\C,0,-0.54004,0.490808,2.309066\C,0,-0.
 860723,0.828412,0.980083\C,0,0.860326,0.828734,-0.980254\C,0,0.539887,
 0.490871,-2.309231\C,0,-0.540201,-0.490277,-2.309237\C,0,-0.860416,-0.
 828397,-0.980266\C,0,1.875284,1.741297,-0.710473\C,0,2.589939,2.311525
 ,-1.781238\C,0,2.262647,1.967685,-3.102133\C,0,1.244201,1.060764,-3.37
 0736\C,0,-1.244444,1.060543,3.370592\C,0,-2.2633,1.967001,3.102003\C,0
 ,-2.590935,2.310487,1.781102\C,0,-1.876141,1.74048,0.710315\C,0,1.8759
 65,-1.740274,0.710396\C,0,2.591001,-2.310021,1.781176\C,0,2.263781,-1.
 965998,3.102046\C,0,1.245086,-1.059351,3.370598\C,0,-1.244648,-1.06001
 7,-3.370731\C,0,-2.262971,-1.967082,-3.102146\C,0,-2.590009,-2.31123,-
 1.781269\C,0,-1.875245,-1.741115,-0.71051\N,0,3.665227,3.218266,-1.546
 548\N,0,-3.666793,3.21659,1.546479\N,0,3.666604,-3.216356,1.546544\N,0
 ,-3.665108,-3.218171,-1.546558\C,0,-4.844728,-3.112898,-2.32994\C,0,3.
 489192,-4.328702,0.685763\C,0,-3.486668,-4.330679,-0.686189\C,0,4.8459
 63,-3.110618,2.330271\C,0,3.487089,4.330696,-0.686031\C,0,4.844804,3.1
 12697,-2.329947\C,0,-4.846115,3.110447,2.330176\C,0,-3.489613,4.328935
 ,0.685661\C,0,-5.325664,4.18584,3.111614\C,0,-6.499916,4.061097,3.8664
 51\C,0,-7.179946,2.84666,3.882499\C,0,-6.720255,1.759269,3.143514\C,0,
 -5.571983,1.895771,2.353918\C,0,4.38085,4.578763,0.374729\C,0,4.236473
 ,5.712891,1.18651\C,0,3.192782,6.600649,0.940722\C,0,2.294553,6.385965
 ,-0.10486\C,0,2.449926,5.261588,-0.925124\C,0,5.323937,4.188299,-3.111
 35\C,0,6.498425,4.064136,-3.865916\C,0,7.179117,2.850066,-3.881721\C,0
 ,6.719862,1.762481,-3.142752\C,0,5.571343,1.898419,-2.353413\C,0,-4.38
 398,4.576242,-0.374768\C,0,-4.240707,5.710327,-1.186802\C,0,-3.197515,
 6.598827,-0.941597\C,0,-2.2987,6.384901,0.103639\C,0,-2.452952,5.26054
 3,0.924143\C,0,2.452437,-5.260164,0.924405\C,0,2.298027,-6.384596,0.10
 4028\C,0,3.196741,-6.598704,-0.941257\C,0,4.239992,-5.710321,-1.186639
 \C,0,4.383445,-4.576175,-0.37472\C,0,5.57236,-1.896254,2.353859\C,0,6.
 720723,-1.760185,3.143398\C,0,7.179923,-2.847703,3.882507\C,0,6.499334
 ,-4.061827,3.866635\C,0,5.325009,-4.18613,3.11183\C,0,-2.449415,-5.261
 398,-0.925555\C,0,-2.293798,-6.385874,-0.105471\C,0,-3.19185,-6.600799
 ,0.940216\C,0,-4.235601,-5.713192,1.18629\C,0,-4.380235,-4.578973,0.37
 4675\C,0,-5.571633,-1.898831,-2.353305\C,0,-6.720244,-1.763196,-3.1425
 59\C,0,-7.179217,-2.850878,-3.881564\C,0,-6.49815,-4.064736,-3.865872\
 C,0,-5.323573,-4.188589,-3.111388\H,0,-2.148843,-1.993341,0.309924\H,0
 ,2.149658,-1.992402,-0.310036\H,0,2.814253,-2.429001,3.914674\H,0,1.00
 1041,-0.804636,4.399377\H,0,-1.000083,0.806191,4.399386\H,0,-2.813607,
 2.430257,3.914598\H,0,-1.000706,-0.805237,-4.399518\H,0,-2.81325,-2.43
 036,-3.91475\H,0,1.000078,0.806194,-4.399532\H,0,2.81285,2.431075,-3.9
 14724\H,0,-2.150188,1.992213,-0.310119\H,0,2.149096,1.993278,0.309962\
 H,0,-7.263968,0.822794,3.164527\O,0,-5.074014,0.899391,1.573861\O,0,5.
 377834,3.657989,0.537536\H,0,4.919829,5.8976,2.006492\H,0,-6.864674,4.
 891356,4.45889\O,0,-4.568862,5.322097,3.090318\H,0,1.509473,7.106234,-
 0.302698\O,0,1.671896,4.994429,-2.003809\O,0,-5.377269,-3.658312,0.537
 776\H,0,-4.91881,-5.898078,2.006355\H,0,-1.508673,-7.106033,-0.303531\
 O,0,-1.671598,-4.993997,-2.004329\H,0,7.264883,-0.823966,3.16427\O,0,5
 .074806,-0.899743,1.573723\H,0,6.863718,-4.892173,4.45918\O,0,4.567679
 ,-5.322032,3.090671\H,0,4.923716,-5.894557,-2.006424\O,0,5.37994,-3.65
 4812,-0.537156\H,0,3.084582,-7.477068,-1.571529\H,0,1.513266,-7.105306
 ,0.301515\O,0,1.67379,-4.99346,2.002753\O,0,-5.074299,-0.902128,-1.573
 266\H,0,-7.264768,-0.827186,-3.163281\H,0,-8.079616,-2.749864,-4.48162
 8\H,0,-6.862379,-4.895231,-4.458304\O,0,-4.565815,-5.324204,-3.090427\
 H,0,-4.924516,5.894426,-2.006546\O,0,-5.380436,3.654799,-0.537005\H,0,
 -3.085478,7.477137,-1.571966\H,0,-1.513986,7.1057,0.300983\O,0,-1.6741
 82,4.994028,2.00246\O,0,5.07375,0.901826,-1.57339\H,0,7.264097,0.82630
 6,-3.163579\H,0,8.079439,2.748807,-4.48186\H,0,6.862872,4.89455,-4.458
 328\O,0,4.566529,5.324144,-3.090262\H,0,-8.080083,2.744957,4.48284\H,0
 ,3.079915,7.478995,1.570893\H,0,8.080128,-2.746345,4.482806\H,0,-3.078
 796,-7.479223,1.570245\C,0,-4.999075,-6.443869,-3.838632\C,0,-0.629679
 ,-5.891975,-2.345129\C,0,6.403229,-3.933032,-1.476496\C,0,5.613997,0.4
 07038,1.709575\C,0,5.000106,6.443725,-3.838413\C,0,0.630176,5.892697,-
 2.344429\C,0,-6.403773,3.932823,-1.476347\C,0,-5.612542,-0.40764,1.709
 955\H,0,-5.981604,-6.80305,-3.503603\H,0,-4.254271,-7.22295,-3.664192\
 H,0,-5.046589,-6.221774,-4.913517\H,0,-0.175557,-5.483841,-3.249944\H,
 0,-1.018302,-6.898287,-2.556023\H,0,0.131993,-5.950368,-1.558885\H,0,6
 .902817,-4.886012,-1.258357\H,0,7.124126,-3.118777,-1.381065\H,0,6.018
 463,-3.956625,-2.505187\H,0,5.052731,1.040139,1.023744\H,0,6.676301,0.
 434448,1.428643\H,0,5.506353,0.771898,2.739571\H,0,4.255581,7.223045,-
 3.663846\H,0,5.047454,6.221699,-4.913319\H,0,5.982785,6.802544,-3.5034
 37\H,0,0.175933,5.484822,-3.249303\H,0,1.019017,6.898959,-2.555163\H,0
 ,-0.131469,5.951131,-1.55816\H,0,-7.124616,3.118534,-1.380785\H,0,-6.0
 1904,3.956305,-2.505053\H,0,-6.903423,4.885797,-1.258324\H,0,-5.051057
 ,-1.040557,1.024135\H,0,-5.504597,-0.772309,2.739985\H,0,-6.674862,-0.
 43562,1.42914\C,0,-5.613963,0.404461,-1.709104\C,0,-0.634099,5.894022,
 2.343522\C,0,6.400086,3.936397,1.477937\C,0,5.612997,-0.404925,-1.7093
 26\C,0,0.63374,-5.893401,2.344091\C,0,-6.399373,-3.93696,1.478273\C,0,
 5.0014,-6.441661,3.838668\C,0,-5.003036,6.441558,3.838298\H,0,-6.67622
 7,0.431523,-1.427991\H,0,-5.506618,0.769293,-2.73914\H,0,-5.052822,1.0
 37803,-1.023403\H,0,5.051731,-1.038119,-1.023592\H,0,6.675279,-0.43232
 7,-1.428315\H,0,5.505439,-0.769693,-2.739363\H,0,4.257056,-7.221105,3.
 66388\H,0,5.04858,-6.219828,4.913622\H,0,5.984189,-6.800216,3.503737\H
 ,0,-0.128266,-5.953204,1.55827\H,0,0.179336,-5.486138,3.249159\H,0,1.0
 24397,-6.898975,2.55473\H,0,-7.120684,-3.12297,1.383713\H,0,-6.898877,
 -4.890107,1.260657\H,0,-6.013403,-3.960472,2.506513\H,0,7.121308,3.122
 353,1.383165\H,0,6.014255,3.959803,2.506232\H,0,6.899661,4.889525,1.26
 0395\H,0,-0.179618,5.486947,3.248637\H,0,-1.02471,6.89965,2.553991\H,0
 ,0.127844,5.953649,1.557623\H,0,-4.25904,7.221323,3.663452\H,0,-5.9859
 97,6.799678,3.503401\H,0,-5.050076,6.219736,4.913261\\Version=EM64L-G0
 9RevA.02\State=1-A\HF=-4864.6811361\RMSD=5.840e-09\Dipole=0.000466,-0.
 0009332,0.0011751\Quadrupole=1.5232181,23.5037436,-25.0269617,-0.02519
 83,0.0008297,-0.0021614\PG=C01 [X(C89H84N4O16)]\\@


 SATCHEL PAIGE'S GUIDE TO LONGEVITY

    1.  AVOID FRIED MEATS, WHICH ANGRY UP THE BLOOD.

    2.  IF YOUR STOMACH DISPUTES YOU, LIE DOWN AND PACIFY IT WITH COOL
        THOUGHTS.

    3.  KEEP THE JUICES FLOWING BY JANGLING AROUND GENTLY AS YOU MOVE.

    4.  GO VERY LIGHT ON THE VICES, SUCH AS CARRYING ON IN SOCIETY.
        THE SOCIAL RUMBLE AIN'T RESTFUL.

    5.  AVOID RUNNING AT ALL TIMES.

    6.  DON'T LOOK BACK.  SOMETHING MAY BE GAINING ON YOU.
 Job cpu time:  0 days 16 hours  8 minutes 30.0 seconds.
 File lengths (MBytes):  RWF=   2017 Int=      0 D2E=      0 Chk=    132 Scr=      1
 Normal termination of Gaussian 09 at Mon Feb  2 23:00:57 2015.
