 Entering Gaussian System, Link 0=g09
 Input=sp_2_B3LYP_cc-pVDZ.com
 Output=sp_2_B3LYP_cc-pVDZ.log
 Initial command:
 /opt/g09/l1.exe /home/jarvist/2014-07_SPIRO/b3lyp-631gs_opt/delta_scf/neutral/Gau-43873.inp -scrdir=/home/jarvist/2014-07_SPIRO/b3lyp-631gs_opt/delta_scf/neutral/
 Default is to use a total of   8 processors:
                                8 via shared-memory
                                1 via Linda
 Entering Link 1 = /opt/g09/l1.exe PID=     43875.
  
 Copyright (c) 1988,1990,1992,1993,1995,1998,2003,2009, Gaussian, Inc.
                  All Rights Reserved.
  
 This is part of the Gaussian(R) 09 program.  It is based on
 the Gaussian(R) 03 system (copyright 2003, Gaussian, Inc.),
 the Gaussian(R) 98 system (copyright 1998, Gaussian, Inc.),
 the Gaussian(R) 94 system (copyright 1995, Gaussian, Inc.),
 the Gaussian 92(TM) system (copyright 1992, Gaussian, Inc.),
 the Gaussian 90(TM) system (copyright 1990, Gaussian, Inc.),
 the Gaussian 88(TM) system (copyright 1988, Gaussian, Inc.),
 the Gaussian 86(TM) system (copyright 1986, Carnegie Mellon
 University), and the Gaussian 82(TM) system (copyright 1983,
 Carnegie Mellon University). Gaussian is a federally registered
 trademark of Gaussian, Inc.
  
 This software contains proprietary and confidential information,
 including trade secrets, belonging to Gaussian, Inc.
  
 This software is provided under written license and may be
 used, copied, transmitted, or stored only in accord with that
 written license.
  
 The following legend is applicable only to US Government
 contracts under FAR:
  
                    RESTRICTED RIGHTS LEGEND
  
 Use, reproduction and disclosure by the US Government is
 subject to restrictions as set forth in subparagraphs (a)
 and (c) of the Commercial Computer Software - Restricted
 Rights clause in FAR 52.227-19.
  
 Gaussian, Inc.
 340 Quinnipiac St., Bldg. 40, Wallingford CT 06492
  
  
 ---------------------------------------------------------------
 Warning -- This program may not be used in any manner that
 competes with the business of Gaussian, Inc. or will provide
 assistance to any competitor of Gaussian, Inc.  The licensee
 of this program is prohibited from giving any competitor of
 Gaussian, Inc. access to this program.  By using this program,
 the user acknowledges that Gaussian, Inc. is engaged in the
 business of creating and licensing software in the field of
 computational chemistry and represents and warrants to the
 licensee that it is not a competitor of Gaussian, Inc. and that
 it will not use this program in any manner prohibited above.
 ---------------------------------------------------------------
  

 Cite this work as:
 Gaussian 09, Revision A.02,
 M. J. Frisch, G. W. Trucks, H. B. Schlegel, G. E. Scuseria, 
 M. A. Robb, J. R. Cheeseman, G. Scalmani, V. Barone, B. Mennucci, 
 G. A. Petersson, H. Nakatsuji, M. Caricato, X. Li, H. P. Hratchian, 
 A. F. Izmaylov, J. Bloino, G. Zheng, J. L. Sonnenberg, M. Hada, 
 M. Ehara, K. Toyota, R. Fukuda, J. Hasegawa, M. Ishida, T. Nakajima, 
 Y. Honda, O. Kitao, H. Nakai, T. Vreven, J. A. Montgomery, Jr., 
 J. E. Peralta, F. Ogliaro, M. Bearpark, J. J. Heyd, E. Brothers, 
 K. N. Kudin, V. N. Staroverov, R. Kobayashi, J. Normand, 
 K. Raghavachari, A. Rendell, J. C. Burant, S. S. Iyengar, J. Tomasi, 
 M. Cossi, N. Rega, J. M. Millam, M. Klene, J. E. Knox, J. B. Cross, 
 V. Bakken, C. Adamo, J. Jaramillo, R. Gomperts, R. E. Stratmann, 
 O. Yazyev, A. J. Austin, R. Cammi, C. Pomelli, J. W. Ochterski, 
 R. L. Martin, K. Morokuma, V. G. Zakrzewski, G. A. Voth, 
 P. Salvador, J. J. Dannenberg, S. Dapprich, A. D. Daniels, 
 O. Farkas, J. B. Foresman, J. V. Ortiz, J. Cioslowski, 
 and D. J. Fox, Gaussian, Inc., Wallingford CT, 2009.
 
 ******************************************
 Gaussian 09:  EM64L-G09RevA.02 11-Jun-2009
                 2-Feb-2015 
 ******************************************
 %mem=16GB
 %nprocs=24
 Will use up to   24 processors via shared memory.
 Default route:  MaxDisk=100GB
 -------------------
 #p sp B3LYP/cc-pVDZ
 -------------------
 1/38=1/1;
 2/12=2,17=6,18=5,40=1/2;
 3/5=16,11=2,16=1,25=1,30=1,74=-5/1,2,3;
 4//1;
 5/5=2,38=5/2;
 6/7=2,8=2,9=2,10=2,28=1/1;
 99/5=1,9=1/99;
 Leave Link    1 at Mon Feb  2 23:00:57 2015, MaxMem= 2147483648 cpu:       1.6
 (Enter /opt/g09/l101.exe)
 ------------------------------------------
 Auto Spiro; and yes I said yes I will Yes.
 ------------------------------------------
 Symbolic Z-matrix:
 Charge =  0 Multiplicity = 1
 C                    -0.03857   0.03991   0.01749 
 C                    -0.88172   0.86747   0.99319 
 C                    -0.65682   0.44033   2.31961 
 C                     0.36249  -0.60977   2.31619 
 C                     0.76715  -0.84308   0.98984 
 C                    -0.87786  -0.80019  -0.96169 
 C                    -0.37904  -0.66172  -2.26952 
 C                     0.72858   0.29519  -2.25709 
 C                     0.89543   0.78168  -0.94549 
 C                    -1.98941  -1.58626  -0.69056 
 C                    -2.62009  -2.27479  -1.74626 
 C                    -2.07972  -2.18047  -3.04582 
 C                    -0.97944  -1.3723   -3.31114 
 C                     0.96521  -1.32959   3.34932 
 C                     1.97352  -2.24472   3.0559 
 C                     2.42147  -2.43377   1.7352 
 C                     1.79181  -1.72656   0.69086 
 C                    -1.81313   1.85475   0.70931 
 C                    -2.53715   2.44655   1.76426 
 C                    -2.29293   2.03425   3.08496 
 C                    -1.36639   1.03189   3.36459 
 C                     1.57287   0.73953  -3.27912 
 C                     2.57263   1.66182  -2.98258 
 C                     2.7397    2.14837  -1.67656 
 C                     1.8882    1.70814  -0.65009 
 N                    -3.79122  -3.04029  -1.53406 
 N                     3.50941  -3.30403   1.44957 
 N                    -3.52548   3.43178   1.48263 
 N                     3.80839   3.06499  -1.4055 
 C                     5.1416    2.59163  -1.4981 
 C                    -3.21133   4.50449   0.59966 
 C                     3.51736   4.21761  -0.6209 
 C                    -4.61145   3.626     2.38633 
 C                    -4.17337  -3.48117  -0.23518 
 C                    -4.78184  -3.11593  -2.55673 
 C                     4.42712  -3.68492   2.47174 
 C                     3.50753  -4.06538   0.24452 
 C                     4.67762  -5.04217   2.72065 
 C                     5.58142  -5.44636   3.70164 
 C                     6.24086  -4.49244   4.47678 
 C                     6.00096  -3.1382    4.24467 
 C                     5.11911  -2.72393   3.24491 
 C                    -5.40655  -3.10378   0.30269 
 C                    -5.83248  -3.56938   1.54919 
 C                    -5.00152  -4.40819   2.2856 
 C                    -3.76294  -4.79955   1.76958 
 C                    -3.3494   -4.36261   0.50663 
 C                    -5.30296  -4.37602  -2.9406 
 C                    -6.29248  -4.44564  -3.92712 
 C                    -6.75191  -3.28185  -4.54972 
 C                    -6.23517  -2.04019  -4.18813 
 C                    -5.26336  -1.96571  -3.18918 
 C                     4.68562  -4.17259  -0.53669 
 C                     4.67816  -4.93732  -1.70684 
 C                     3.50847  -5.5746   -2.12887 
 C                     2.3414   -5.45973  -1.37916 
 C                     2.35372  -4.71994  -0.19628 
 C                    -1.97684   5.16483   0.67948 
 C                    -1.69371   6.26332  -0.1301 
 C                    -2.64914   6.7278   -1.03648 
 C                    -3.87425   6.06988  -1.14084 
 C                    -4.16118   4.95992  -0.34335 
 C                    -5.48958   2.55547   2.68907 
 C                    -6.55059   2.75596   3.5756 
 C                    -6.76947   4.01421   4.14482 
 C                    -5.92332   5.07536   3.83958 
 C                    -4.84712   4.87157   2.97385 
 C                     2.60456   5.17866  -1.11869 
 C                     2.30897   6.31391  -0.36 
 C                     2.92142   6.51045   0.88226 
 C                     3.82884   5.57619   1.37242 
 C                     4.115     4.43406   0.62181 
 C                     5.44912   1.23931  -1.26992 
 C                     6.75714   0.76671  -1.36647 
 C                     7.80042   1.64035  -1.67294 
 C                     7.51232   2.98511  -1.9078 
 C                     6.20347   3.46273  -1.84248 
 H                     2.03023   2.07484   0.36246 
 H                    -2.00176   2.16502  -0.31413 
 H                    -2.84094   2.50385   3.89519 
 H                    -1.19775   0.72713   4.3945 
 H                     0.66156  -1.18228   4.38279 
 H                     2.44153  -2.8003    3.86074 
 H                     1.45449   0.37475  -4.2964 
 H                     3.23848   2.02119  -3.76115 
 H                    -0.59896  -1.30092  -4.32721 
 H                    -2.54523  -2.73592  -3.85253 
 H                     2.1188   -1.86553  -0.3345 
 H                    -2.38975  -1.64813   0.31614 
 H                     6.49765  -2.36796   4.82744 
 O                     4.89657  -1.37577   3.1036 
 H                    -6.04252  -2.4459   -0.28198 
 H                    -6.80232  -3.271     1.93739 
 H                     5.75211  -6.50624   3.86999 
 H                     4.14674  -5.7838    2.13159 
 H                    -3.1323   -5.46349   2.34934 
 O                    -2.18546  -4.73833  -0.08706 
 H                     4.81977   3.69586   0.99292 
 H                     4.30698   5.724     2.3363 
 H                     1.62351   7.06174  -0.74267 
 O                     2.0875    4.92198  -2.35571 
 H                    -7.22363   1.93942   3.81093 
 O                    -5.22368   1.36915   2.07089 
 H                    -6.08472   6.05553   4.27873 
 H                    -4.17272   5.68945   2.74084 
 H                    -4.63576   6.39821  -1.84192 
 O                    -5.40579   4.39238  -0.4666 
 H                    -2.44381   7.59352  -1.66043 
 H                    -0.73725   6.76667  -0.02596 
 H                    -1.24494   4.81492   1.40094 
 H                     4.64516   0.5586   -1.01126 
 H                     6.95544  -0.286    -1.18255 
 H                     8.82419   1.28255  -1.73765 
 H                     8.29468   3.69534  -2.15964 
 O                     5.99201   4.80425  -2.07441 
 H                     5.57688  -5.0228   -2.30683 
 O                     5.7776   -3.49541  -0.07781 
 H                     3.5188   -6.15223  -3.0489 
 H                     1.42704  -5.94663  -1.70608 
 H                     1.45358  -4.62395   0.40132 
 H                    -4.85398  -1.00551  -2.89017 
 H                    -6.59151  -1.13263  -4.66659 
 H                    -7.51458  -3.35696  -5.31999 
 H                    -6.69795  -5.40544  -4.22616 
 O                    -4.7813   -5.45913  -2.30043 
 H                     6.9382   -4.79599   5.25269 
 H                    -5.30931  -4.77096   3.26249 
 H                    -7.60735   4.15347   4.82243 
 H                     2.68652   7.40292   1.45587 
 C                     5.44546   5.11098  -3.35932 
 C                     1.12314   5.81614  -2.88891 
 C                    -5.43639   3.06571  -1.00488 
 C                    -5.9899    0.23085   2.43161 
 C                    -5.27918  -6.74429  -2.6312 
 C                    -1.36407  -5.67748   0.58474 
 C                     7.00803  -3.64496  -0.76838 
 C                     5.47301  -0.76419   1.94606 
 H                     6.1009    4.74134  -4.1599 
 H                     5.39111   6.2012   -3.41153 
 H                     4.44102   4.6922   -3.47958 
 H                     0.84537   5.40504  -3.86125 
 H                     1.53939   6.82339  -3.02761 
 H                     0.2323    5.87288  -2.25209 
 H                    -6.49372   2.82176  -1.13334 
 H                    -4.97573   2.34294  -0.32607 
 H                    -4.93606   3.03358  -1.98208 
 H                    -5.56538  -0.60593   1.87564 
 H                    -7.04706   0.35368   2.15907 
 H                    -5.91699   0.02517   3.50736 
 H                    -4.72826  -7.44667  -2.00322 
 H                    -5.10228  -6.98703  -3.68758 
 H                    -6.35245  -6.83083  -2.41604 
 H                    -0.53545  -5.88574  -0.09344 
 H                    -1.90443  -6.61103   0.79116 
 H                    -0.97064  -5.27276   1.52657 
 H                     7.73796  -3.06359  -0.20229 
 H                     6.94701  -3.25493  -1.79302 
 H                     7.32627  -4.69491  -0.79925 
 H                     6.56988  -0.80418   1.99383 
 H                     5.14854   0.27791   1.96048 
 H                     5.13531  -1.24622   1.0249 
 
 NAtoms=    161 NQM=    161 NQMF=      0 NMic=      0 NMicF=      0 NTot=    161.
                    Isotopes and Nuclear Properties:
 (Nuclear quadrupole moments (NQMom) in fm**2, nuclear magnetic moments (NMagM)
  in nuclear magnetons)

  Atom         1           2           3           4           5           6           7           8           9          10
 IAtWgt=          12          12          12          12          12          12          12          12          12          12
 AtmWgt=  12.0000000  12.0000000  12.0000000  12.0000000  12.0000000  12.0000000  12.0000000  12.0000000  12.0000000  12.0000000
 NucSpn=           0           0           0           0           0           0           0           0           0           0
 AtZEff=   0.0000000   0.0000000   0.0000000   0.0000000   0.0000000   0.0000000   0.0000000   0.0000000   0.0000000   0.0000000
 NQMom=    0.0000000   0.0000000   0.0000000   0.0000000   0.0000000   0.0000000   0.0000000   0.0000000   0.0000000   0.0000000
 NMagM=    0.0000000   0.0000000   0.0000000   0.0000000   0.0000000   0.0000000   0.0000000   0.0000000   0.0000000   0.0000000

  Atom        11          12          13          14          15          16          17          18          19          20
 IAtWgt=          12          12          12          12          12          12          12          12          12          12
 AtmWgt=  12.0000000  12.0000000  12.0000000  12.0000000  12.0000000  12.0000000  12.0000000  12.0000000  12.0000000  12.0000000
 NucSpn=           0           0           0           0           0           0           0           0           0           0
 AtZEff=   0.0000000   0.0000000   0.0000000   0.0000000   0.0000000   0.0000000   0.0000000   0.0000000   0.0000000   0.0000000
 NQMom=    0.0000000   0.0000000   0.0000000   0.0000000   0.0000000   0.0000000   0.0000000   0.0000000   0.0000000   0.0000000
 NMagM=    0.0000000   0.0000000   0.0000000   0.0000000   0.0000000   0.0000000   0.0000000   0.0000000   0.0000000   0.0000000

  Atom        21          22          23          24          25          26          27          28          29          30
 IAtWgt=          12          12          12          12          12          14          14          14          14          12
 AtmWgt=  12.0000000  12.0000000  12.0000000  12.0000000  12.0000000  14.0030740  14.0030740  14.0030740  14.0030740  12.0000000
 NucSpn=           0           0           0           0           0           2           2           2           2           0
 AtZEff=   0.0000000   0.0000000   0.0000000   0.0000000   0.0000000   0.0000000   0.0000000   0.0000000   0.0000000   0.0000000
 NQMom=    0.0000000   0.0000000   0.0000000   0.0000000   0.0000000   2.0440000   2.0440000   2.0440000   2.0440000   0.0000000
 NMagM=    0.0000000   0.0000000   0.0000000   0.0000000   0.0000000   0.4037610   0.4037610   0.4037610   0.4037610   0.0000000

  Atom        31          32          33          34          35          36          37          38          39          40
 IAtWgt=          12          12          12          12          12          12          12          12          12          12
 AtmWgt=  12.0000000  12.0000000  12.0000000  12.0000000  12.0000000  12.0000000  12.0000000  12.0000000  12.0000000  12.0000000
 NucSpn=           0           0           0           0           0           0           0           0           0           0
 AtZEff=   0.0000000   0.0000000   0.0000000   0.0000000   0.0000000   0.0000000   0.0000000   0.0000000   0.0000000   0.0000000
 NQMom=    0.0000000   0.0000000   0.0000000   0.0000000   0.0000000   0.0000000   0.0000000   0.0000000   0.0000000   0.0000000
 NMagM=    0.0000000   0.0000000   0.0000000   0.0000000   0.0000000   0.0000000   0.0000000   0.0000000   0.0000000   0.0000000

  Atom        41          42          43          44          45          46          47          48          49          50
 IAtWgt=          12          12          12          12          12          12          12          12          12          12
 AtmWgt=  12.0000000  12.0000000  12.0000000  12.0000000  12.0000000  12.0000000  12.0000000  12.0000000  12.0000000  12.0000000
 NucSpn=           0           0           0           0           0           0           0           0           0           0
 AtZEff=   0.0000000   0.0000000   0.0000000   0.0000000   0.0000000   0.0000000   0.0000000   0.0000000   0.0000000   0.0000000
 NQMom=    0.0000000   0.0000000   0.0000000   0.0000000   0.0000000   0.0000000   0.0000000   0.0000000   0.0000000   0.0000000
 NMagM=    0.0000000   0.0000000   0.0000000   0.0000000   0.0000000   0.0000000   0.0000000   0.0000000   0.0000000   0.0000000

  Atom        51          52          53          54          55          56          57          58          59          60
 IAtWgt=          12          12          12          12          12          12          12          12          12          12
 AtmWgt=  12.0000000  12.0000000  12.0000000  12.0000000  12.0000000  12.0000000  12.0000000  12.0000000  12.0000000  12.0000000
 NucSpn=           0           0           0           0           0           0           0           0           0           0
 AtZEff=   0.0000000   0.0000000   0.0000000   0.0000000   0.0000000   0.0000000   0.0000000   0.0000000   0.0000000   0.0000000
 NQMom=    0.0000000   0.0000000   0.0000000   0.0000000   0.0000000   0.0000000   0.0000000   0.0000000   0.0000000   0.0000000
 NMagM=    0.0000000   0.0000000   0.0000000   0.0000000   0.0000000   0.0000000   0.0000000   0.0000000   0.0000000   0.0000000

  Atom        61          62          63          64          65          66          67          68          69          70
 IAtWgt=          12          12          12          12          12          12          12          12          12          12
 AtmWgt=  12.0000000  12.0000000  12.0000000  12.0000000  12.0000000  12.0000000  12.0000000  12.0000000  12.0000000  12.0000000
 NucSpn=           0           0           0           0           0           0           0           0           0           0
 AtZEff=   0.0000000   0.0000000   0.0000000   0.0000000   0.0000000   0.0000000   0.0000000   0.0000000   0.0000000   0.0000000
 NQMom=    0.0000000   0.0000000   0.0000000   0.0000000   0.0000000   0.0000000   0.0000000   0.0000000   0.0000000   0.0000000
 NMagM=    0.0000000   0.0000000   0.0000000   0.0000000   0.0000000   0.0000000   0.0000000   0.0000000   0.0000000   0.0000000

  Atom        71          72          73          74          75          76          77          78          79          80
 IAtWgt=          12          12          12          12          12          12          12           1           1           1
 AtmWgt=  12.0000000  12.0000000  12.0000000  12.0000000  12.0000000  12.0000000  12.0000000   1.0078250   1.0078250   1.0078250
 NucSpn=           0           0           0           0           0           0           0           1           1           1
 AtZEff=   0.0000000   0.0000000   0.0000000   0.0000000   0.0000000   0.0000000   0.0000000   0.0000000   0.0000000   0.0000000
 NQMom=    0.0000000   0.0000000   0.0000000   0.0000000   0.0000000   0.0000000   0.0000000   0.0000000   0.0000000   0.0000000
 NMagM=    0.0000000   0.0000000   0.0000000   0.0000000   0.0000000   0.0000000   0.0000000   2.7928460   2.7928460   2.7928460

  Atom        81          82          83          84          85          86          87          88          89          90
 IAtWgt=           1           1           1           1           1           1           1           1           1           1
 AtmWgt=   1.0078250   1.0078250   1.0078250   1.0078250   1.0078250   1.0078250   1.0078250   1.0078250   1.0078250   1.0078250
 NucSpn=           1           1           1           1           1           1           1           1           1           1
 AtZEff=   0.0000000   0.0000000   0.0000000   0.0000000   0.0000000   0.0000000   0.0000000   0.0000000   0.0000000   0.0000000
 NQMom=    0.0000000   0.0000000   0.0000000   0.0000000   0.0000000   0.0000000   0.0000000   0.0000000   0.0000000   0.0000000
 NMagM=    2.7928460   2.7928460   2.7928460   2.7928460   2.7928460   2.7928460   2.7928460   2.7928460   2.7928460   2.7928460

  Atom        91          92          93          94          95          96          97          98          99         100
 IAtWgt=          16           1           1           1           1           1          16           1           1           1
 AtmWgt=  15.9949146   1.0078250   1.0078250   1.0078250   1.0078250   1.0078250  15.9949146   1.0078250   1.0078250   1.0078250
 NucSpn=           0           1           1           1           1           1           0           1           1           1
 AtZEff=   0.0000000   0.0000000   0.0000000   0.0000000   0.0000000   0.0000000   0.0000000   0.0000000   0.0000000   0.0000000
 NQMom=    0.0000000   0.0000000   0.0000000   0.0000000   0.0000000   0.0000000   0.0000000   0.0000000   0.0000000   0.0000000
 NMagM=    0.0000000   2.7928460   2.7928460   2.7928460   2.7928460   2.7928460   0.0000000   2.7928460   2.7928460   2.7928460

  Atom       101         102         103         104         105         106         107         108         109         110
 IAtWgt=          16           1          16           1           1           1          16           1           1           1
 AtmWgt=  15.9949146   1.0078250  15.9949146   1.0078250   1.0078250   1.0078250  15.9949146   1.0078250   1.0078250   1.0078250
 NucSpn=           0           1           0           1           1           1           0           1           1           1
 AtZEff=   0.0000000   0.0000000   0.0000000   0.0000000   0.0000000   0.0000000   0.0000000   0.0000000   0.0000000   0.0000000
 NQMom=    0.0000000   0.0000000   0.0000000   0.0000000   0.0000000   0.0000000   0.0000000   0.0000000   0.0000000   0.0000000
 NMagM=    0.0000000   2.7928460   0.0000000   2.7928460   2.7928460   2.7928460   0.0000000   2.7928460   2.7928460   2.7928460

  Atom       111         112         113         114         115         116         117         118         119         120
 IAtWgt=           1           1           1           1          16           1          16           1           1           1
 AtmWgt=   1.0078250   1.0078250   1.0078250   1.0078250  15.9949146   1.0078250  15.9949146   1.0078250   1.0078250   1.0078250
 NucSpn=           1           1           1           1           0           1           0           1           1           1
 AtZEff=   0.0000000   0.0000000   0.0000000   0.0000000   0.0000000   0.0000000   0.0000000   0.0000000   0.0000000   0.0000000
 NQMom=    0.0000000   0.0000000   0.0000000   0.0000000   0.0000000   0.0000000   0.0000000   0.0000000   0.0000000   0.0000000
 NMagM=    2.7928460   2.7928460   2.7928460   2.7928460   0.0000000   2.7928460   0.0000000   2.7928460   2.7928460   2.7928460

  Atom       121         122         123         124         125         126         127         128         129         130
 IAtWgt=           1           1           1           1          16           1           1           1           1          12
 AtmWgt=   1.0078250   1.0078250   1.0078250   1.0078250  15.9949146   1.0078250   1.0078250   1.0078250   1.0078250  12.0000000
 NucSpn=           1           1           1           1           0           1           1           1           1           0
 AtZEff=   0.0000000   0.0000000   0.0000000   0.0000000   0.0000000   0.0000000   0.0000000   0.0000000   0.0000000   0.0000000
 NQMom=    0.0000000   0.0000000   0.0000000   0.0000000   0.0000000   0.0000000   0.0000000   0.0000000   0.0000000   0.0000000
 NMagM=    2.7928460   2.7928460   2.7928460   2.7928460   0.0000000   2.7928460   2.7928460   2.7928460   2.7928460   0.0000000

  Atom       131         132         133         134         135         136         137         138         139         140
 IAtWgt=          12          12          12          12          12          12          12           1           1           1
 AtmWgt=  12.0000000  12.0000000  12.0000000  12.0000000  12.0000000  12.0000000  12.0000000   1.0078250   1.0078250   1.0078250
 NucSpn=           0           0           0           0           0           0           0           1           1           1
 AtZEff=   0.0000000   0.0000000   0.0000000   0.0000000   0.0000000   0.0000000   0.0000000   0.0000000   0.0000000   0.0000000
 NQMom=    0.0000000   0.0000000   0.0000000   0.0000000   0.0000000   0.0000000   0.0000000   0.0000000   0.0000000   0.0000000
 NMagM=    0.0000000   0.0000000   0.0000000   0.0000000   0.0000000   0.0000000   0.0000000   2.7928460   2.7928460   2.7928460

  Atom       141         142         143         144         145         146         147         148         149         150
 IAtWgt=           1           1           1           1           1           1           1           1           1           1
 AtmWgt=   1.0078250   1.0078250   1.0078250   1.0078250   1.0078250   1.0078250   1.0078250   1.0078250   1.0078250   1.0078250
 NucSpn=           1           1           1           1           1           1           1           1           1           1
 AtZEff=   0.0000000   0.0000000   0.0000000   0.0000000   0.0000000   0.0000000   0.0000000   0.0000000   0.0000000   0.0000000
 NQMom=    0.0000000   0.0000000   0.0000000   0.0000000   0.0000000   0.0000000   0.0000000   0.0000000   0.0000000   0.0000000
 NMagM=    2.7928460   2.7928460   2.7928460   2.7928460   2.7928460   2.7928460   2.7928460   2.7928460   2.7928460   2.7928460

  Atom       151         152         153         154         155         156         157         158         159         160
 IAtWgt=           1           1           1           1           1           1           1           1           1           1
 AtmWgt=   1.0078250   1.0078250   1.0078250   1.0078250   1.0078250   1.0078250   1.0078250   1.0078250   1.0078250   1.0078250
 NucSpn=           1           1           1           1           1           1           1           1           1           1
 AtZEff=   0.0000000   0.0000000   0.0000000   0.0000000   0.0000000   0.0000000   0.0000000   0.0000000   0.0000000   0.0000000
 NQMom=    0.0000000   0.0000000   0.0000000   0.0000000   0.0000000   0.0000000   0.0000000   0.0000000   0.0000000   0.0000000
 NMagM=    2.7928460   2.7928460   2.7928460   2.7928460   2.7928460   2.7928460   2.7928460   2.7928460   2.7928460   2.7928460

  Atom       161
 IAtWgt=           1
 AtmWgt=   1.0078250
 NucSpn=           1
 AtZEff=   0.0000000
 NQMom=    0.0000000
 NMagM=    2.7928460
 Leave Link  101 at Mon Feb  2 23:00:57 2015, MaxMem= 2147483648 cpu:       3.3
 (Enter /opt/g09/l202.exe)
 Stoichiometry    C81H68N4O8
 Framework group  C1[X(C81H68N4O8)]
 Deg. of freedom   477
 Full point group                 C1      NOp   1
 Largest Abelian subgroup         C1      NOp   1
 Largest concise Abelian subgroup C1      NOp   1
                         Standard orientation:                         
 ---------------------------------------------------------------------
 Center     Atomic      Atomic             Coordinates (Angstroms)
 Number     Number       Type             X           Y           Z
 ---------------------------------------------------------------------
      1          6           0       -0.038574    0.039905    0.017485
      2          6           0       -0.881721    0.867467    0.993186
      3          6           0       -0.656824    0.440334    2.319610
      4          6           0        0.362486   -0.609770    2.316194
      5          6           0        0.767150   -0.843081    0.989835
      6          6           0       -0.877857   -0.800187   -0.961694
      7          6           0       -0.379038   -0.661720   -2.269524
      8          6           0        0.728580    0.295187   -2.257089
      9          6           0        0.895434    0.781675   -0.945490
     10          6           0       -1.989411   -1.586259   -0.690558
     11          6           0       -2.620094   -2.274790   -1.746255
     12          6           0       -2.079715   -2.180468   -3.045817
     13          6           0       -0.979440   -1.372299   -3.311135
     14          6           0        0.965207   -1.329589    3.349316
     15          6           0        1.973521   -2.244716    3.055900
     16          6           0        2.421473   -2.433773    1.735195
     17          6           0        1.791809   -1.726557    0.690856
     18          6           0       -1.813127    1.854752    0.709311
     19          6           0       -2.537150    2.446550    1.764255
     20          6           0       -2.292934    2.034252    3.084964
     21          6           0       -1.366393    1.031888    3.364589
     22          6           0        1.572866    0.739527   -3.279120
     23          6           0        2.572629    1.661817   -2.982575
     24          6           0        2.739695    2.148371   -1.676557
     25          6           0        1.888199    1.708139   -0.650090
     26          7           0       -3.791219   -3.040291   -1.534061
     27          7           0        3.509407   -3.304025    1.449569
     28          7           0       -3.525479    3.431784    1.482628
     29          7           0        3.808388    3.064986   -1.405503
     30          6           0        5.141604    2.591626   -1.498095
     31          6           0       -3.211326    4.504487    0.599664
     32          6           0        3.517360    4.217611   -0.620904
     33          6           0       -4.611451    3.626000    2.386329
     34          6           0       -4.173371   -3.481173   -0.235175
     35          6           0       -4.781840   -3.115927   -2.556727
     36          6           0        4.427118   -3.684920    2.471739
     37          6           0        3.507529   -4.065381    0.244515
     38          6           0        4.677617   -5.042167    2.720653
     39          6           0        5.581424   -5.446355    3.701639
     40          6           0        6.240861   -4.492443    4.476784
     41          6           0        6.000955   -3.138198    4.244666
     42          6           0        5.119111   -2.723927    3.244911
     43          6           0       -5.406548   -3.103783    0.302694
     44          6           0       -5.832483   -3.569378    1.549188
     45          6           0       -5.001520   -4.408194    2.285595
     46          6           0       -3.762943   -4.799552    1.769579
     47          6           0       -3.349398   -4.362612    0.506630
     48          6           0       -5.302956   -4.376022   -2.940604
     49          6           0       -6.292476   -4.445644   -3.927118
     50          6           0       -6.751909   -3.281851   -4.549723
     51          6           0       -6.235175   -2.040186   -4.188126
     52          6           0       -5.263361   -1.965706   -3.189183
     53          6           0        4.685615   -4.172586   -0.536690
     54          6           0        4.678156   -4.937319   -1.706835
     55          6           0        3.508470   -5.574595   -2.128865
     56          6           0        2.341405   -5.459729   -1.379157
     57          6           0        2.353721   -4.719943   -0.196281
     58          6           0       -1.976841    5.164832    0.679481
     59          6           0       -1.693705    6.263318   -0.130104
     60          6           0       -2.649141    6.727802   -1.036476
     61          6           0       -3.874252    6.069880   -1.140842
     62          6           0       -4.161176    4.959921   -0.343350
     63          6           0       -5.489583    2.555471    2.689066
     64          6           0       -6.550586    2.755960    3.575599
     65          6           0       -6.769471    4.014208    4.144822
     66          6           0       -5.923321    5.075361    3.839579
     67          6           0       -4.847120    4.871572    2.973853
     68          6           0        2.604563    5.178655   -1.118692
     69          6           0        2.308970    6.313915   -0.359996
     70          6           0        2.921419    6.510451    0.882262
     71          6           0        3.828841    5.576190    1.372422
     72          6           0        4.114999    4.434059    0.621808
     73          6           0        5.449122    1.239307   -1.269919
     74          6           0        6.757142    0.766710   -1.366465
     75          6           0        7.800424    1.640351   -1.672943
     76          6           0        7.512320    2.985113   -1.907795
     77          6           0        6.203471    3.462733   -1.842484
     78          1           0        2.030232    2.074838    0.362457
     79          1           0       -2.001765    2.165016   -0.314125
     80          1           0       -2.840941    2.503845    3.895190
     81          1           0       -1.197747    0.727134    4.394501
     82          1           0        0.661557   -1.182277    4.382793
     83          1           0        2.441527   -2.800304    3.860736
     84          1           0        1.454486    0.374748   -4.296404
     85          1           0        3.238476    2.021194   -3.761149
     86          1           0       -0.598956   -1.300915   -4.327214
     87          1           0       -2.545225   -2.735916   -3.852534
     88          1           0        2.118799   -1.865532   -0.334499
     89          1           0       -2.389754   -1.648127    0.316136
     90          1           0        6.497652   -2.367958    4.827445
     91          8           0        4.896574   -1.375766    3.103597
     92          1           0       -6.042521   -2.445898   -0.281980
     93          1           0       -6.802316   -3.271001    1.937391
     94          1           0        5.752115   -6.506235    3.869989
     95          1           0        4.146737   -5.783796    2.131586
     96          1           0       -3.132295   -5.463491    2.349342
     97          8           0       -2.185459   -4.738332   -0.087055
     98          1           0        4.819767    3.695860    0.992922
     99          1           0        4.306981    5.723996    2.336296
    100          1           0        1.623514    7.061736   -0.742668
    101          8           0        2.087496    4.921978   -2.355712
    102          1           0       -7.223634    1.939415    3.810933
    103          8           0       -5.223676    1.369154    2.070894
    104          1           0       -6.084720    6.055525    4.278731
    105          1           0       -4.172724    5.689452    2.740842
    106          1           0       -4.635758    6.398213   -1.841915
    107          8           0       -5.405793    4.392376   -0.466596
    108          1           0       -2.443808    7.593518   -1.660428
    109          1           0       -0.737254    6.766674   -0.025961
    110          1           0       -1.244936    4.814924    1.400939
    111          1           0        4.645161    0.558597   -1.011263
    112          1           0        6.955443   -0.286002   -1.182550
    113          1           0        8.824194    1.282544   -1.737646
    114          1           0        8.294680    3.695339   -2.159640
    115          8           0        5.992013    4.804248   -2.074406
    116          1           0        5.576883   -5.022802   -2.306827
    117          8           0        5.777599   -3.495413   -0.077807
    118          1           0        3.518795   -6.152234   -3.048899
    119          1           0        1.427038   -5.946629   -1.706083
    120          1           0        1.453581   -4.623947    0.401317
    121          1           0       -4.853981   -1.005511   -2.890168
    122          1           0       -6.591514   -1.132631   -4.666586
    123          1           0       -7.514583   -3.356960   -5.319994
    124          1           0       -6.697952   -5.405437   -4.226156
    125          8           0       -4.781304   -5.459128   -2.300432
    126          1           0        6.938200   -4.795991    5.252694
    127          1           0       -5.309312   -4.770961    3.262488
    128          1           0       -7.607352    4.153472    4.822431
    129          1           0        2.686521    7.402925    1.455867
    130          6           0        5.445462    5.110984   -3.359315
    131          6           0        1.123136    5.816139   -2.888906
    132          6           0       -5.436387    3.065710   -1.004882
    133          6           0       -5.989895    0.230851    2.431610
    134          6           0       -5.279180   -6.744290   -2.631201
    135          6           0       -1.364070   -5.677476    0.584738
    136          6           0        7.008035   -3.644958   -0.768380
    137          6           0        5.473006   -0.764189    1.946060
    138          1           0        6.100899    4.741342   -4.159896
    139          1           0        5.391111    6.201201   -3.411531
    140          1           0        4.441016    4.692199   -3.479584
    141          1           0        0.845372    5.405039   -3.861247
    142          1           0        1.539392    6.823391   -3.027606
    143          1           0        0.232300    5.872881   -2.252094
    144          1           0       -6.493722    2.821757   -1.133339
    145          1           0       -4.975732    2.342940   -0.326071
    146          1           0       -4.936058    3.033578   -1.982081
    147          1           0       -5.565378   -0.605929    1.875640
    148          1           0       -7.047061    0.353678    2.159072
    149          1           0       -5.916993    0.025173    3.507355
    150          1           0       -4.728263   -7.446666   -2.003223
    151          1           0       -5.102282   -6.987034   -3.687577
    152          1           0       -6.352449   -6.830829   -2.416040
    153          1           0       -0.535452   -5.885735   -0.093440
    154          1           0       -1.904425   -6.611032    0.791163
    155          1           0       -0.970642   -5.272755    1.526565
    156          1           0        7.737960   -3.063590   -0.202291
    157          1           0        6.947010   -3.254933   -1.793015
    158          1           0        7.326269   -4.694905   -0.799251
    159          1           0        6.569878   -0.804180    1.993830
    160          1           0        5.148538    0.277912    1.960478
    161          1           0        5.135311   -1.246219    1.024905
 ---------------------------------------------------------------------
 Rotational constants (GHZ):      0.0212149      0.0175306      0.0125730
 Leave Link  202 at Mon Feb  2 23:00:57 2015, MaxMem= 2147483648 cpu:       1.1
 (Enter /opt/g09/l301.exe)
 Standard basis: CC-pVDZ (5D, 7F)
 Ernie: Thresh=  0.10000D-02 Tol=  0.10000D-05 Strict=F.
 Ernie:  186 primitive shells out of 2386 were deleted.
 There are  1642 symmetry adapted basis functions of A   symmetry.
 Integral buffers will be    131072 words long.
 Raffenetti 2 integral format.
 Two-electron integral symmetry is turned on.
  1642 basis functions,  3545 primitive gaussians,  1735 cartesian basis functions
   323 alpha electrons      323 beta electrons
       nuclear repulsion energy     17443.0532504940 Hartrees.
 IExCor=  402 DFT=T Ex+Corr=B3LYP ExCW=0 ScaHFX=  0.200000
 ScaDFX=  0.800000  0.720000  1.000000  0.810000 ScalE2=  1.000000  1.000000
 IRadAn=      0 IRanWt=     -1 IRanGd=            0 ICorTp=0
 NAtoms=  161 NActive=  161 NUniq=  161 SFac= 7.50D-01 NAtFMM=   80 NAOKFM=T Big=T
 Leave Link  301 at Mon Feb  2 23:00:57 2015, MaxMem= 2147483648 cpu:       2.3
 (Enter /opt/g09/l302.exe)
 NPDir=0 NMtPBC=     1 NCelOv=     1 NCel=       1 NClECP=     1 NCelD=      1
         NCelK=      1 NCelE2=     1 NClLst=     1 CellRange=     0.0.
 One-electron integrals computed using PRISM.
 NBasis=  1642 RedAO= T  NBF=  1642
 NBsUse=  1642 1.00D-06 NBFU=  1642
 Precomputing XC quadrature grid using
 IXCGrd= 2 IRadAn=           0 IRanWt=          -1 IRanGd=           0 AccXCQ= 1.00D-10.
 NRdTot=   10498 NPtTot=     1345312 NUsed=     1420904 NTot=     1420936
 NSgBfM=  1310  1334  1336  1345  1358 NAtAll=   161   161.
 Leave Link  302 at Mon Feb  2 23:01:18 2015, MaxMem= 2147483648 cpu:     509.1
 (Enter /opt/g09/l303.exe)
 DipDrv:  MaxL=1.
 Leave Link  303 at Mon Feb  2 23:01:20 2015, MaxMem= 2147483648 cpu:      37.8
 (Enter /opt/g09/l401.exe)
 Harris functional with IExCor=  402 diagonalized for initial guess.
 ExpMin= 1.22D-01 ExpMax= 1.17D+04 ExpMxC= 4.01D+02 IAcc=1 IRadAn=         1 AccDes= 0.00D+00
 HarFok:  IExCor=  402 AccDes= 0.00D+00 IRadAn=         1 IDoV= 1
 ScaDFX=  1.000000  1.000000  1.000000  1.000000
 FoFCou: FMM=F IPFlag=           0 FMFlag=      100000 FMFlg1=        2001
         NFxFlg=           0 DoJE=T BraDBF=F KetDBF=T FulRan=T
         Omega=  0.000000  0.000000  1.000000  0.000000  0.000000 ICntrl=     500 IOpCl=  0
         NMat0=    1 NMatS0=    1 NMatT0=    0 NMatD0=    1 NMtDS0=    0 NMtDT0=    0
         I1Cent=           4 NGrid=           0.
 Petite list used in FoFCou.
 Harris En= -3948.64515765014    
 Initial guess orbital symmetries:
       Occupied  (A) (A) (A) (A) (A) (A) (A) (A) (A) (A) (A) (A)
                 (A) (A) (A) (A) (A) (A) (A) (A) (A) (A) (A) (A)
                 (A) (A) (A) (A) (A) (A) (A) (A) (A) (A) (A) (A)
                 (A) (A) (A) (A) (A) (A) (A) (A) (A) (A) (A) (A)
                 (A) (A) (A) (A) (A) (A) (A) (A) (A) (A) (A) (A)
                 (A) (A) (A) (A) (A) (A) (A) (A) (A) (A) (A) (A)
                 (A) (A) (A) (A) (A) (A) (A) (A) (A) (A) (A) (A)
                 (A) (A) (A) (A) (A) (A) (A) (A) (A) (A) (A) (A)
                 (A) (A) (A) (A) (A) (A) (A) (A) (A) (A) (A) (A)
                 (A) (A) (A) (A) (A) (A) (A) (A) (A) (A) (A) (A)
                 (A) (A) (A) (A) (A) (A) (A) (A) (A) (A) (A) (A)
                 (A) (A) (A) (A) (A) (A) (A) (A) (A) (A) (A) (A)
                 (A) (A) (A) (A) (A) (A) (A) (A) (A) (A) (A) (A)
                 (A) (A) (A) (A) (A) (A) (A) (A) (A) (A) (A) (A)
                 (A) (A) (A) (A) (A) (A) (A) (A) (A) (A) (A) (A)
                 (A) (A) (A) (A) (A) (A) (A) (A) (A) (A) (A) (A)
                 (A) (A) (A) (A) (A) (A) (A) (A) (A) (A) (A) (A)
                 (A) (A) (A) (A) (A) (A) (A) (A) (A) (A) (A) (A)
                 (A) (A) (A) (A) (A) (A) (A) (A) (A) (A) (A) (A)
                 (A) (A) (A) (A) (A) (A) (A) (A) (A) (A) (A) (A)
                 (A) (A) (A) (A) (A) (A) (A) (A) (A) (A) (A) (A)
                 (A) (A) (A) (A) (A) (A) (A) (A) (A) (A) (A) (A)
                 (A) (A) (A) (A) (A) (A) (A) (A) (A) (A) (A) (A)
                 (A) (A) (A) (A) (A) (A) (A) (A) (A) (A) (A) (A)
                 (A) (A) (A) (A) (A) (A) (A) (A) (A) (A) (A) (A)
                 (A) (A) (A) (A) (A) (A) (A) (A) (A) (A) (A) (A)
                 (A) (A) (A) (A) (A) (A) (A) (A) (A) (A) (A)
       Virtual   (A) (A) (A) (A) (A) (A) (A) (A) (A) (A) (A) (A)
                 (A) (A) (A) (A) (A) (A) (A) (A) (A) (A) (A) (A)
                 (A) (A) (A) (A) (A) (A) (A) (A) (A) (A) (A) (A)
                 (A) (A) (A) (A) (A) (A) (A) (A) (A) (A) (A) (A)
                 (A) (A) (A) (A) (A) (A) (A) (A) (A) (A) (A) (A)
                 (A) (A) (A) (A) (A) (A) (A) (A) (A) (A) (A) (A)
                 (A) (A) (A) (A) (A) (A) (A) (A) (A) (A) (A) (A)
                 (A) (A) (A) (A) (A) (A) (A) (A) (A) (A) (A) (A)
                 (A) (A) (A) (A) (A) (A) (A) (A) (A) (A) (A) (A)
                 (A) (A) (A) (A) (A) (A) (A) (A) (A) (A) (A) (A)
                 (A) (A) (A) (A) (A) (A) (A) (A) (A) (A) (A) (A)
                 (A) (A) (A) (A) (A) (A) (A) (A) (A) (A) (A) (A)
                 (A) (A) (A) (A) (A) (A) (A) (A) (A) (A) (A) (A)
                 (A) (A) (A) (A) (A) (A) (A) (A) (A) (A) (A) (A)
                 (A) (A) (A) (A) (A) (A) (A) (A) (A) (A) (A) (A)
                 (A) (A) (A) (A) (A) (A) (A) (A) (A) (A) (A) (A)
                 (A) (A) (A) (A) (A) (A) (A) (A) (A) (A) (A) (A)
                 (A) (A) (A) (A) (A) (A) (A) (A) (A) (A) (A) (A)
                 (A) (A) (A) (A) (A) (A) (A) (A) (A) (A) (A) (A)
                 (A) (A) (A) (A) (A) (A) (A) (A) (A) (A) (A) (A)
                 (A) (A) (A) (A) (A) (A) (A) (A) (A) (A) (A) (A)
                 (A) (A) (A) (A) (A) (A) (A) (A) (A) (A) (A) (A)
                 (A) (A) (A) (A) (A) (A) (A) (A) (A) (A) (A) (A)
                 (A) (A) (A) (A) (A) (A) (A) (A) (A) (A) (A) (A)
                 (A) (A) (A) (A) (A) (A) (A) (A) (A) (A) (A) (A)
                 (A) (A) (A) (A) (A) (A) (A) (A) (A) (A) (A) (A)
                 (A) (A) (A) (A) (A) (A) (A) (A) (A) (A) (A) (A)
                 (A) (A) (A) (A) (A) (A) (A) (A) (A) (A) (A) (A)
                 (A) (A) (A) (A) (A) (A) (A) (A) (A) (A) (A) (A)
                 (A) (A) (A) (A) (A) (A) (A) (A) (A) (A) (A) (A)
                 (A) (A) (A) (A) (A) (A) (A) (A) (A) (A) (A) (A)
                 (A) (A) (A) (A) (A) (A) (A) (A) (A) (A) (A) (A)
                 (A) (A) (A) (A) (A) (A) (A) (A) (A) (A) (A) (A)
                 (A) (A) (A) (A) (A) (A) (A) (A) (A) (A) (A) (A)
                 (A) (A) (A) (A) (A) (A) (A) (A) (A) (A) (A) (A)
                 (A) (A) (A) (A) (A) (A) (A) (A) (A) (A) (A) (A)
                 (A) (A) (A) (A) (A) (A) (A) (A) (A) (A) (A) (A)
                 (A) (A) (A) (A) (A) (A) (A) (A) (A) (A) (A) (A)
                 (A) (A) (A) (A) (A) (A) (A) (A) (A) (A) (A) (A)
                 (A) (A) (A) (A) (A) (A) (A) (A) (A) (A) (A) (A)
                 (A) (A) (A) (A) (A) (A) (A) (A) (A) (A) (A) (A)
                 (A) (A) (A) (A) (A) (A) (A) (A) (A) (A) (A) (A)
                 (A) (A) (A) (A) (A) (A) (A) (A) (A) (A) (A) (A)
                 (A) (A) (A) (A) (A) (A) (A) (A) (A) (A) (A) (A)
                 (A) (A) (A) (A) (A) (A) (A) (A) (A) (A) (A) (A)
                 (A) (A) (A) (A) (A) (A) (A) (A) (A) (A) (A) (A)
                 (A) (A) (A) (A) (A) (A) (A) (A) (A) (A) (A) (A)
                 (A) (A) (A) (A) (A) (A) (A) (A) (A) (A) (A) (A)
                 (A) (A) (A) (A) (A) (A) (A) (A) (A) (A) (A) (A)
                 (A) (A) (A) (A) (A) (A) (A) (A) (A) (A) (A) (A)
                 (A) (A) (A) (A) (A) (A) (A) (A) (A) (A) (A) (A)
                 (A) (A) (A) (A) (A) (A) (A) (A) (A) (A) (A) (A)
                 (A) (A) (A) (A) (A) (A) (A) (A) (A) (A) (A) (A)
                 (A) (A) (A) (A) (A) (A) (A) (A) (A) (A) (A) (A)
                 (A) (A) (A) (A) (A) (A) (A) (A) (A) (A) (A) (A)
                 (A) (A) (A) (A) (A) (A) (A) (A) (A) (A) (A) (A)
                 (A) (A) (A) (A) (A) (A) (A) (A) (A) (A) (A) (A)
                 (A) (A) (A) (A) (A) (A) (A) (A) (A) (A) (A) (A)
                 (A) (A) (A) (A) (A) (A) (A) (A) (A) (A) (A) (A)
                 (A) (A) (A) (A) (A) (A) (A) (A) (A) (A) (A) (A)
                 (A) (A) (A) (A) (A) (A) (A) (A) (A) (A) (A) (A)
                 (A) (A) (A) (A) (A) (A) (A) (A) (A) (A) (A) (A)
                 (A) (A) (A) (A) (A) (A) (A) (A) (A) (A) (A) (A)
                 (A) (A) (A) (A) (A) (A) (A) (A) (A) (A) (A) (A)
                 (A) (A) (A) (A) (A) (A) (A) (A) (A) (A) (A) (A)
                 (A) (A) (A) (A) (A) (A) (A) (A) (A) (A) (A) (A)
                 (A) (A) (A) (A) (A) (A) (A) (A) (A) (A) (A) (A)
                 (A) (A) (A) (A) (A) (A) (A) (A) (A) (A) (A) (A)
                 (A) (A) (A) (A) (A) (A) (A) (A) (A) (A) (A) (A)
                 (A) (A) (A) (A) (A) (A) (A) (A) (A) (A) (A) (A)
                 (A) (A) (A) (A) (A) (A) (A) (A) (A) (A) (A) (A)
                 (A) (A) (A) (A) (A) (A) (A) (A) (A) (A) (A) (A)
                 (A) (A) (A) (A) (A) (A) (A) (A) (A) (A) (A) (A)
                 (A) (A) (A) (A) (A) (A) (A) (A) (A) (A) (A) (A)
                 (A) (A) (A) (A) (A) (A) (A) (A) (A) (A) (A) (A)
                 (A) (A) (A) (A) (A) (A) (A) (A) (A) (A) (A) (A)
                 (A) (A) (A) (A) (A) (A) (A) (A) (A) (A) (A) (A)
                 (A) (A) (A) (A) (A) (A) (A) (A) (A) (A) (A) (A)
                 (A) (A) (A) (A) (A) (A) (A) (A) (A) (A) (A) (A)
                 (A) (A) (A) (A) (A) (A) (A) (A) (A) (A) (A) (A)
                 (A) (A) (A) (A) (A) (A) (A) (A) (A) (A) (A) (A)
                 (A) (A) (A) (A) (A) (A) (A) (A) (A) (A) (A) (A)
                 (A) (A) (A) (A) (A) (A) (A) (A) (A) (A) (A) (A)
                 (A) (A) (A) (A) (A) (A) (A) (A) (A) (A) (A) (A)
                 (A) (A) (A) (A) (A) (A) (A) (A) (A) (A) (A) (A)
                 (A) (A) (A) (A) (A) (A) (A) (A) (A) (A) (A) (A)
                 (A) (A) (A) (A) (A) (A) (A) (A) (A) (A) (A) (A)
                 (A) (A) (A) (A) (A) (A) (A) (A) (A) (A) (A) (A)
                 (A) (A) (A) (A) (A) (A) (A) (A) (A) (A) (A) (A)
                 (A) (A) (A) (A) (A) (A) (A) (A) (A) (A) (A) (A)
                 (A) (A) (A) (A) (A) (A) (A) (A) (A) (A) (A) (A)
                 (A) (A) (A) (A) (A) (A) (A) (A) (A) (A) (A) (A)
                 (A) (A) (A) (A) (A) (A) (A) (A) (A) (A) (A) (A)
                 (A) (A) (A) (A) (A) (A) (A) (A) (A) (A) (A) (A)
                 (A) (A) (A) (A) (A) (A) (A) (A) (A) (A) (A) (A)
                 (A) (A) (A) (A) (A) (A) (A) (A) (A) (A) (A) (A)
                 (A) (A) (A) (A) (A) (A) (A) (A) (A) (A) (A) (A)
                 (A) (A) (A) (A) (A) (A) (A) (A) (A) (A) (A) (A)
                 (A) (A) (A) (A) (A) (A) (A) (A) (A) (A) (A) (A)
                 (A) (A) (A) (A) (A) (A) (A) (A) (A) (A) (A) (A)
                 (A) (A) (A) (A) (A) (A) (A) (A) (A) (A) (A) (A)
                 (A) (A) (A) (A) (A) (A) (A) (A) (A) (A) (A) (A)
                 (A) (A) (A) (A) (A) (A) (A) (A) (A) (A) (A) (A)
                 (A) (A) (A) (A) (A) (A) (A) (A) (A) (A) (A) (A)
                 (A) (A) (A) (A) (A) (A) (A) (A) (A) (A) (A) (A)
                 (A) (A) (A) (A) (A) (A) (A) (A) (A) (A) (A) (A)
                 (A) (A) (A) (A) (A) (A) (A) (A) (A) (A) (A) (A)
                 (A) (A) (A) (A) (A) (A) (A) (A) (A) (A) (A) (A)
                 (A) (A) (A) (A) (A) (A) (A) (A) (A) (A) (A) (A)
                 (A) (A) (A) (A) (A) (A) (A) (A) (A) (A) (A)
 The electronic state of the initial guess is 1-A.
 Leave Link  401 at Mon Feb  2 23:01:43 2015, MaxMem= 2147483648 cpu:     550.4
 (Enter /opt/g09/l502.exe)
 Closed shell SCF:
 Requested convergence on RMS density matrix=1.00D-08 within 128 cycles.
 Requested convergence on MAX density matrix=1.00D-06.
 Requested convergence on             energy=1.00D-06.
 No special actions if energy rises.
 Using DIIS extrapolation, IDIIS=  1040.
 Integral symmetry usage will be decided dynamically.
      1419442 words used for storage of precomputed grid.
 IEnd=    10523039 IEndB=    10523039 NGot=  2147483648 MDV=  2139989210
 LenX=  2139989210 LenY=  2136977250
 Fock matrices will be formed incrementally for  20 cycles.
 Integral accuracy reduced to 1.0D-05 until final iterations.

 Cycle   1  Pass 0  IDiag  1:
 FoFCou: FMM=T IPFlag=           0 FMFlag=      100000 FMFlg1=        2001
         NFxFlg=           0 DoJE=F BraDBF=F KetDBF=F FulRan=T
         Omega=  0.000000  0.000000  1.000000  0.000000  0.000000 ICntrl=       0 IOpCl=  0
         NMat0=    1 NMatS0=    1 NMatT0=    0 NMatD0=    1 NMtDS0=    0 NMtDT0=    0
         I1Cent=           0 NGrid=           0.
 Symmetry not used in FoFCou.
 FMM levels:  10  Number of levels for PrismC:   9
 E= -3946.61385074222    
 DIIS: error= 1.71D-02 at cycle   1 NSaved=   1.
 NSaved= 1 IEnMin= 1 EnMin= -3946.61385074222     IErMin= 1 ErrMin= 1.71D-02
 ErrMax= 1.71D-02 EMaxC= 1.00D-01 BMatC= 1.62D+00 BMatP= 1.62D+00
 IDIUse=3 WtCom= 8.29D-01 WtEn= 1.71D-01
 Coeff-Com:  0.100D+01
 Coeff-En:   0.100D+01
 Coeff:      0.100D+01
 Gap=     0.165 Goal=   None    Shift=    0.000
 GapD=    0.165 DampG=1.000 DampE=0.500 DampFc=0.5000 IDamp=-1.
 Damping current iteration by 5.00D-01
 RMSDP=2.27D-03 MaxDP=1.65D-01              OVMax= 2.19D-01

 Cycle   2  Pass 0  IDiag  1:
 RMSU=  7.62D-04    CP:  9.59D-01
 E= -3947.40900028005     Delta-E=       -0.795149537829 Rises=F Damp=T
 DIIS: error= 4.13D-03 at cycle   2 NSaved=   2.
 NSaved= 2 IEnMin= 2 EnMin= -3947.40900028005     IErMin= 2 ErrMin= 4.13D-03
 ErrMax= 4.13D-03 EMaxC= 1.00D-01 BMatC= 1.37D-01 BMatP= 1.62D+00
 IDIUse=3 WtCom= 9.59D-01 WtEn= 4.13D-02
 Coeff-Com:  0.827D-01 0.917D+00
 Coeff-En:   0.123D+00 0.877D+00
 Coeff:      0.843D-01 0.916D+00
 Gap=     0.145 Goal=   None    Shift=    0.000
 RMSDP=8.50D-04 MaxDP=9.48D-02 DE=-7.95D-01 OVMax= 2.17D-01

 Cycle   3  Pass 0  IDiag  1:
 RMSU=  5.68D-04    CP:  9.34D-01  1.16D+00
 E= -3948.17432133019     Delta-E=       -0.765321050138 Rises=F Damp=F
 DIIS: error= 7.53D-03 at cycle   3 NSaved=   3.
 NSaved= 3 IEnMin= 3 EnMin= -3948.17432133019     IErMin= 2 ErrMin= 4.13D-03
 ErrMax= 7.53D-03 EMaxC= 1.00D-01 BMatC= 2.78D-01 BMatP= 1.37D-01
 IDIUse=3 WtCom= 1.03D-01 WtEn= 8.97D-01
 Coeff-Com: -0.968D-02 0.603D+00 0.407D+00
 Coeff-En:   0.000D+00 0.000D+00 0.100D+01
 Coeff:     -0.100D-02 0.623D-01 0.939D+00
 Gap=     0.185 Goal=   None    Shift=    0.000
 RMSDP=1.20D-03 MaxDP=8.50D-02 DE=-7.65D-01 OVMax= 2.41D-01

 Cycle   4  Pass 0  IDiag  1:
 RMSU=  4.84D-04    CP:  9.38D-01  1.32D+00 -2.01D-01
 E= -3946.95315234621     Delta-E=        1.221168983979 Rises=F Damp=F
 DIIS: error= 1.59D-02 at cycle   4 NSaved=   4.
 NSaved= 4 IEnMin= 3 EnMin= -3948.17432133019     IErMin= 2 ErrMin= 4.13D-03
 ErrMax= 1.59D-02 EMaxC= 1.00D-01 BMatC= 1.39D+00 BMatP= 1.37D-01
 IDIUse=2 WtCom= 0.00D+00 WtEn= 1.00D+00
 Coeff-En:   0.000D+00 0.000D+00 0.769D+00 0.231D+00
 Coeff:      0.000D+00 0.000D+00 0.769D+00 0.231D+00
 Gap=     0.151 Goal=   None    Shift=    0.000
 RMSDP=6.09D-04 MaxDP=4.51D-02 DE= 1.22D+00 OVMax= 1.42D-01

 Cycle   5  Pass 0  IDiag  1:
 RMSU=  8.32D-05    CP:  9.37D-01  1.21D+00  3.82D-01  4.85D-01
 E= -3948.37233038555     Delta-E=       -1.419178039341 Rises=F Damp=F
 DIIS: error= 4.79D-03 at cycle   5 NSaved=   5.
 NSaved= 5 IEnMin= 5 EnMin= -3948.37233038555     IErMin= 2 ErrMin= 4.13D-03
 ErrMax= 4.79D-03 EMaxC= 1.00D-01 BMatC= 1.01D-01 BMatP= 1.37D-01
 IDIUse=3 WtCom= 9.52D-01 WtEn= 4.79D-02
 Coeff-Com:  0.623D-02 0.118D-01 0.344D+00-0.277D-01 0.666D+00
 Coeff-En:   0.000D+00 0.000D+00 0.321D+00 0.000D+00 0.679D+00
 Coeff:      0.593D-02 0.113D-01 0.343D+00-0.264D-01 0.666D+00
 Gap=     0.141 Goal=   None    Shift=    0.000
 RMSDP=2.32D-04 MaxDP=1.83D-02 DE=-1.42D+00 OVMax= 5.39D-02

 Cycle   6  Pass 0  IDiag  1:
 RMSU=  4.06D-05    CP:  9.36D-01  1.19D+00  6.08D-01  3.04D-01  6.48D-01
 E= -3948.48085657163     Delta-E=       -0.108526186083 Rises=F Damp=F
 DIIS: error= 1.01D-03 at cycle   6 NSaved=   6.
 NSaved= 6 IEnMin= 6 EnMin= -3948.48085657163     IErMin= 6 ErrMin= 1.01D-03
 ErrMax= 1.01D-03 EMaxC= 1.00D-01 BMatC= 2.20D-03 BMatP= 1.01D-01
 IDIUse=3 WtCom= 9.90D-01 WtEn= 1.01D-02
 Coeff-Com:  0.290D-04 0.130D-02 0.140D+00-0.658D-01 0.467D+00 0.457D+00
 Coeff-En:   0.000D+00 0.000D+00 0.000D+00 0.000D+00 0.000D+00 0.100D+01
 Coeff:      0.287D-04 0.128D-02 0.139D+00-0.651D-01 0.463D+00 0.463D+00
 Gap=     0.139 Goal=   None    Shift=    0.000
 RMSDP=3.85D-05 MaxDP=3.65D-03 DE=-1.09D-01 OVMax= 1.04D-02

 Cycle   7  Pass 0  IDiag  1:
 RMSU=  1.08D-05    CP:  9.36D-01  1.19D+00  6.11D-01  3.01D-01  7.95D-01
                    CP:  4.67D-01
 E= -3948.48320836360     Delta-E=       -0.002351791962 Rises=F Damp=F
 DIIS: error= 2.41D-04 at cycle   7 NSaved=   7.
 NSaved= 7 IEnMin= 7 EnMin= -3948.48320836360     IErMin= 7 ErrMin= 2.41D-04
 ErrMax= 2.41D-04 EMaxC= 1.00D-01 BMatC= 1.49D-04 BMatP= 2.20D-03
 IDIUse=3 WtCom= 9.98D-01 WtEn= 2.41D-03
 Coeff-Com: -0.128D-03 0.238D-03 0.770D-01-0.415D-01 0.273D+00 0.305D+00
 Coeff-Com:  0.387D+00
 Coeff-En:   0.000D+00 0.000D+00 0.000D+00 0.000D+00 0.000D+00 0.000D+00
 Coeff-En:   0.100D+01
 Coeff:     -0.128D-03 0.237D-03 0.769D-01-0.414D-01 0.272D+00 0.304D+00
 Coeff:      0.388D+00
 Gap=     0.139 Goal=   None    Shift=    0.000
 RMSDP=1.03D-05 MaxDP=9.03D-04 DE=-2.35D-03 OVMax= 2.81D-03

 Cycle   8  Pass 0  IDiag  1:
 RMSU=  4.13D-06    CP:  9.36D-01  1.19D+00  6.11D-01  3.00D-01  7.89D-01
                    CP:  5.30D-01  5.04D-01
 E= -3948.48334539477     Delta-E=       -0.000137031169 Rises=F Damp=F
 DIIS: error= 5.54D-05 at cycle   8 NSaved=   8.
 NSaved= 8 IEnMin= 8 EnMin= -3948.48334539477     IErMin= 8 ErrMin= 5.54D-05
 ErrMax= 5.54D-05 EMaxC= 1.00D-01 BMatC= 1.17D-05 BMatP= 1.49D-04
 IDIUse=1 WtCom= 1.00D+00 WtEn= 0.00D+00
 Coeff-Com:  0.573D-04-0.269D-03 0.231D-01-0.133D-01 0.812D-01 0.102D+00
 Coeff-Com:  0.230D+00 0.577D+00
 Coeff:      0.573D-04-0.269D-03 0.231D-01-0.133D-01 0.812D-01 0.102D+00
 Coeff:      0.230D+00 0.577D+00
 Gap=     0.139 Goal=   None    Shift=    0.000
 RMSDP=4.96D-06 MaxDP=4.92D-04 DE=-1.37D-04 OVMax= 7.70D-04

 Initial convergence to 1.0D-05 achieved.  Increase integral accuracy.
 Cycle   9  Pass 1  IDiag  1:
 E= -3948.48291038843     Delta-E=        0.000435006335 Rises=F Damp=F
 DIIS: error= 2.98D-04 at cycle   1 NSaved=   1.
 NSaved= 1 IEnMin= 1 EnMin= -3948.48291038843     IErMin= 1 ErrMin= 2.98D-04
 ErrMax= 2.98D-04 EMaxC= 1.00D-01 BMatC= 1.51D-04 BMatP= 1.51D-04
 IDIUse=3 WtCom= 9.97D-01 WtEn= 2.98D-03
 Coeff-Com:  0.100D+01
 Coeff-En:   0.100D+01
 Coeff:      0.100D+01
 Gap=     0.139 Goal=   None    Shift=    0.000
 RMSDP=4.96D-06 MaxDP=4.92D-04 DE= 4.35D-04 OVMax= 1.14D-03

 Cycle  10  Pass 1  IDiag  1:
 RMSU=  1.46D-04    CP:  9.99D-01
 E= -3948.48303824297     Delta-E=       -0.000127854539 Rises=F Damp=F
 DIIS: error= 5.18D-05 at cycle   2 NSaved=   2.
 NSaved= 2 IEnMin= 2 EnMin= -3948.48303824297     IErMin= 2 ErrMin= 5.18D-05
 ErrMax= 5.18D-05 EMaxC= 1.00D-01 BMatC= 9.16D-06 BMatP= 1.51D-04
 IDIUse=1 WtCom= 1.00D+00 WtEn= 0.00D+00
 Coeff-Com:  0.743D-01 0.926D+00
 Coeff:      0.743D-01 0.926D+00
 Gap=     0.139 Goal=   None    Shift=    0.000
 RMSDP=7.03D-06 MaxDP=8.53D-04 DE=-1.28D-04 OVMax= 1.86D-03

 Cycle  11  Pass 1  IDiag  1:
 RMSU=  4.80D-06    CP:  9.99D-01  1.01D+00
 E= -3948.48300688469     Delta-E=        0.000031358279 Rises=F Damp=F
 DIIS: error= 1.16D-04 at cycle   3 NSaved=   3.
 NSaved= 3 IEnMin= 2 EnMin= -3948.48303824297     IErMin= 2 ErrMin= 5.18D-05
 ErrMax= 1.16D-04 EMaxC= 1.00D-01 BMatC= 3.71D-05 BMatP= 9.16D-06
 IDIUse=3 WtCom= 4.81D-01 WtEn= 5.19D-01
 Coeff-Com: -0.301D-02 0.671D+00 0.332D+00
 Coeff-En:   0.000D+00 0.748D+00 0.252D+00
 Coeff:     -0.145D-02 0.711D+00 0.290D+00
 Gap=     0.139 Goal=   None    Shift=    0.000
 RMSDP=4.06D-06 MaxDP=5.37D-04 DE= 3.14D-05 OVMax= 1.17D-03

 Cycle  12  Pass 1  IDiag  1:
 RMSU=  4.95D-07    CP:  9.99D-01  1.01D+00  4.10D-01
 E= -3948.48304729506     Delta-E=       -0.000040410370 Rises=F Damp=F
 DIIS: error= 8.87D-06 at cycle   4 NSaved=   4.
 NSaved= 4 IEnMin= 4 EnMin= -3948.48304729506     IErMin= 4 ErrMin= 8.87D-06
 ErrMax= 8.87D-06 EMaxC= 1.00D-01 BMatC= 8.31D-07 BMatP= 9.16D-06
 IDIUse=1 WtCom= 1.00D+00 WtEn= 0.00D+00
 Coeff-Com: -0.357D-02 0.418D+00 0.157D+00 0.428D+00
 Coeff:     -0.357D-02 0.418D+00 0.157D+00 0.428D+00
 Gap=     0.139 Goal=   None    Shift=    0.000
 RMSDP=6.02D-07 MaxDP=8.21D-05 DE=-4.04D-05 OVMax= 1.22D-04

 Cycle  13  Pass 1  IDiag  1:
 RMSU=  2.01D-07    CP:  9.99D-01  1.01D+00  3.42D-01  6.41D-01
 E= -3948.48304806128     Delta-E=       -0.000000766217 Rises=F Damp=F
 DIIS: error= 2.21D-06 at cycle   5 NSaved=   5.
 NSaved= 5 IEnMin= 5 EnMin= -3948.48304806128     IErMin= 5 ErrMin= 2.21D-06
 ErrMax= 2.21D-06 EMaxC= 1.00D-01 BMatC= 1.03D-08 BMatP= 8.31D-07
 IDIUse=1 WtCom= 1.00D+00 WtEn= 0.00D+00
 Coeff-Com: -0.211D-02 0.240D+00 0.874D-01 0.263D+00 0.412D+00
 Coeff:     -0.211D-02 0.240D+00 0.874D-01 0.263D+00 0.412D+00
 Gap=     0.139 Goal=   None    Shift=    0.000
 RMSDP=9.23D-08 MaxDP=1.28D-05 DE=-7.66D-07 OVMax= 2.10D-05

 Cycle  14  Pass 1  IDiag  1:
 RMSU=  5.37D-08    CP:  9.99D-01  1.01D+00  3.41D-01  6.76D-01  8.38D-01
 E= -3948.48304807179     Delta-E=       -0.000000010517 Rises=F Damp=F
 DIIS: error= 6.12D-07 at cycle   6 NSaved=   6.
 NSaved= 6 IEnMin= 6 EnMin= -3948.48304807179     IErMin= 6 ErrMin= 6.12D-07
 ErrMax= 6.12D-07 EMaxC= 1.00D-01 BMatC= 8.38D-10 BMatP= 1.03D-08
 IDIUse=1 WtCom= 1.00D+00 WtEn= 0.00D+00
 Coeff-Com: -0.481D-03 0.523D-01 0.181D-01 0.633D-01 0.231D+00 0.636D+00
 Coeff:     -0.481D-03 0.523D-01 0.181D-01 0.633D-01 0.231D+00 0.636D+00
 Gap=     0.139 Goal=   None    Shift=    0.000
 RMSDP=3.15D-08 MaxDP=2.33D-06 DE=-1.05D-08 OVMax= 8.07D-06

 Cycle  15  Pass 1  IDiag  1:
 RMSU=  1.71D-08    CP:  9.99D-01  1.01D+00  3.41D-01  6.76D-01  8.75D-01
                    CP:  7.81D-01
 E= -3948.48304807324     Delta-E=       -0.000000001444 Rises=F Damp=F
 DIIS: error= 2.59D-07 at cycle   7 NSaved=   7.
 NSaved= 7 IEnMin= 7 EnMin= -3948.48304807324     IErMin= 7 ErrMin= 2.59D-07
 ErrMax= 2.59D-07 EMaxC= 1.00D-01 BMatC= 3.91D-10 BMatP= 8.38D-10
 IDIUse=1 WtCom= 1.00D+00 WtEn= 0.00D+00
 Coeff-Com: -0.106D-04-0.434D-03-0.900D-03 0.348D-02 0.104D+00 0.468D+00
 Coeff-Com:  0.426D+00
 Coeff:     -0.106D-04-0.434D-03-0.900D-03 0.348D-02 0.104D+00 0.468D+00
 Coeff:      0.426D+00
 Gap=     0.139 Goal=   None    Shift=    0.000
 RMSDP=1.65D-08 MaxDP=1.02D-06 DE=-1.44D-09 OVMax= 3.80D-06

 Cycle  16  Pass 1  IDiag  1:
 RMSU=  5.78D-09    CP:  9.99D-01  1.01D+00  3.41D-01  6.78D-01  8.82D-01
                    CP:  8.45D-01  4.51D-01
 E= -3948.48304807293     Delta-E=        0.000000000309 Rises=F Damp=F
 DIIS: error= 6.63D-08 at cycle   8 NSaved=   8.
 NSaved= 8 IEnMin= 7 EnMin= -3948.48304807324     IErMin= 8 ErrMin= 6.63D-08
 ErrMax= 6.63D-08 EMaxC= 1.00D-01 BMatC= 2.58D-11 BMatP= 3.91D-10
 IDIUse=1 WtCom= 1.00D+00 WtEn= 0.00D+00
 Coeff-Com:  0.424D-04-0.570D-02-0.245D-02-0.442D-02 0.421D-01 0.231D+00
 Coeff-Com:  0.272D+00 0.468D+00
 Coeff:      0.424D-04-0.570D-02-0.245D-02-0.442D-02 0.421D-01 0.231D+00
 Coeff:      0.272D+00 0.468D+00
 Gap=     0.139 Goal=   None    Shift=    0.000
 RMSDP=4.01D-09 MaxDP=4.30D-07 DE= 3.09D-10 OVMax= 8.68D-07

 SCF Done:  E(RB3LYP) =  -3948.48304807     A.U. after   16 cycles
             Convg  =    0.4009D-08             -V/T =  2.0066
 KE= 3.922720625354D+03 PE=-4.407022671151D+04 EE= 1.875596978758D+04
 Leave Link  502 at Mon Feb  2 23:30:19 2015, MaxMem= 2147483648 cpu:   41123.1
 (Enter /opt/g09/l601.exe)
 Copying SCF densities to generalized density rwf, IOpCl= 0 IROHF=0.

 **********************************************************************

            Population analysis using the SCF density.

 **********************************************************************

 Orbital symmetries:
       Occupied  (A) (A) (A) (A) (A) (A) (A) (A) (A) (A) (A) (A)
                 (A) (A) (A) (A) (A) (A) (A) (A) (A) (A) (A) (A)
                 (A) (A) (A) (A) (A) (A) (A) (A) (A) (A) (A) (A)
                 (A) (A) (A) (A) (A) (A) (A) (A) (A) (A) (A) (A)
                 (A) (A) (A) (A) (A) (A) (A) (A) (A) (A) (A) (A)
                 (A) (A) (A) (A) (A) (A) (A) (A) (A) (A) (A) (A)
                 (A) (A) (A) (A) (A) (A) (A) (A) (A) (A) (A) (A)
                 (A) (A) (A) (A) (A) (A) (A) (A) (A) (A) (A) (A)
                 (A) (A) (A) (A) (A) (A) (A) (A) (A) (A) (A) (A)
                 (A) (A) (A) (A) (A) (A) (A) (A) (A) (A) (A) (A)
                 (A) (A) (A) (A) (A) (A) (A) (A) (A) (A) (A) (A)
                 (A) (A) (A) (A) (A) (A) (A) (A) (A) (A) (A) (A)
                 (A) (A) (A) (A) (A) (A) (A) (A) (A) (A) (A) (A)
                 (A) (A) (A) (A) (A) (A) (A) (A) (A) (A) (A) (A)
                 (A) (A) (A) (A) (A) (A) (A) (A) (A) (A) (A) (A)
                 (A) (A) (A) (A) (A) (A) (A) (A) (A) (A) (A) (A)
                 (A) (A) (A) (A) (A) (A) (A) (A) (A) (A) (A) (A)
                 (A) (A) (A) (A) (A) (A) (A) (A) (A) (A) (A) (A)
                 (A) (A) (A) (A) (A) (A) (A) (A) (A) (A) (A) (A)
                 (A) (A) (A) (A) (A) (A) (A) (A) (A) (A) (A) (A)
                 (A) (A) (A) (A) (A) (A) (A) (A) (A) (A) (A) (A)
                 (A) (A) (A) (A) (A) (A) (A) (A) (A) (A) (A) (A)
                 (A) (A) (A) (A) (A) (A) (A) (A) (A) (A) (A) (A)
                 (A) (A) (A) (A) (A) (A) (A) (A) (A) (A) (A) (A)
                 (A) (A) (A) (A) (A) (A) (A) (A) (A) (A) (A) (A)
                 (A) (A) (A) (A) (A) (A) (A) (A) (A) (A) (A) (A)
                 (A) (A) (A) (A) (A) (A) (A) (A) (A) (A) (A)
       Virtual   (A) (A) (A) (A) (A) (A) (A) (A) (A) (A) (A) (A)
                 (A) (A) (A) (A) (A) (A) (A) (A) (A) (A) (A) (A)
                 (A) (A) (A) (A) (A) (A) (A) (A) (A) (A) (A) (A)
                 (A) (A) (A) (A) (A) (A) (A) (A) (A) (A) (A) (A)
                 (A) (A) (A) (A) (A) (A) (A) (A) (A) (A) (A) (A)
                 (A) (A) (A) (A) (A) (A) (A) (A) (A) (A) (A) (A)
                 (A) (A) (A) (A) (A) (A) (A) (A) (A) (A) (A) (A)
                 (A) (A) (A) (A) (A) (A) (A) (A) (A) (A) (A) (A)
                 (A) (A) (A) (A) (A) (A) (A) (A) (A) (A) (A) (A)
                 (A) (A) (A) (A) (A) (A) (A) (A) (A) (A) (A) (A)
                 (A) (A) (A) (A) (A) (A) (A) (A) (A) (A) (A) (A)
                 (A) (A) (A) (A) (A) (A) (A) (A) (A) (A) (A) (A)
                 (A) (A) (A) (A) (A) (A) (A) (A) (A) (A) (A) (A)
                 (A) (A) (A) (A) (A) (A) (A) (A) (A) (A) (A) (A)
                 (A) (A) (A) (A) (A) (A) (A) (A) (A) (A) (A) (A)
                 (A) (A) (A) (A) (A) (A) (A) (A) (A) (A) (A) (A)
                 (A) (A) (A) (A) (A) (A) (A) (A) (A) (A) (A) (A)
                 (A) (A) (A) (A) (A) (A) (A) (A) (A) (A) (A) (A)
                 (A) (A) (A) (A) (A) (A) (A) (A) (A) (A) (A) (A)
                 (A) (A) (A) (A) (A) (A) (A) (A) (A) (A) (A) (A)
                 (A) (A) (A) (A) (A) (A) (A) (A) (A) (A) (A) (A)
                 (A) (A) (A) (A) (A) (A) (A) (A) (A) (A) (A) (A)
                 (A) (A) (A) (A) (A) (A) (A) (A) (A) (A) (A) (A)
                 (A) (A) (A) (A) (A) (A) (A) (A) (A) (A) (A) (A)
                 (A) (A) (A) (A) (A) (A) (A) (A) (A) (A) (A) (A)
                 (A) (A) (A) (A) (A) (A) (A) (A) (A) (A) (A) (A)
                 (A) (A) (A) (A) (A) (A) (A) (A) (A) (A) (A) (A)
                 (A) (A) (A) (A) (A) (A) (A) (A) (A) (A) (A) (A)
                 (A) (A) (A) (A) (A) (A) (A) (A) (A) (A) (A) (A)
                 (A) (A) (A) (A) (A) (A) (A) (A) (A) (A) (A) (A)
                 (A) (A) (A) (A) (A) (A) (A) (A) (A) (A) (A) (A)
                 (A) (A) (A) (A) (A) (A) (A) (A) (A) (A) (A) (A)
                 (A) (A) (A) (A) (A) (A) (A) (A) (A) (A) (A) (A)
                 (A) (A) (A) (A) (A) (A) (A) (A) (A) (A) (A) (A)
                 (A) (A) (A) (A) (A) (A) (A) (A) (A) (A) (A) (A)
                 (A) (A) (A) (A) (A) (A) (A) (A) (A) (A) (A) (A)
                 (A) (A) (A) (A) (A) (A) (A) (A) (A) (A) (A) (A)
                 (A) (A) (A) (A) (A) (A) (A) (A) (A) (A) (A) (A)
                 (A) (A) (A) (A) (A) (A) (A) (A) (A) (A) (A) (A)
                 (A) (A) (A) (A) (A) (A) (A) (A) (A) (A) (A) (A)
                 (A) (A) (A) (A) (A) (A) (A) (A) (A) (A) (A) (A)
                 (A) (A) (A) (A) (A) (A) (A) (A) (A) (A) (A) (A)
                 (A) (A) (A) (A) (A) (A) (A) (A) (A) (A) (A) (A)
                 (A) (A) (A) (A) (A) (A) (A) (A) (A) (A) (A) (A)
                 (A) (A) (A) (A) (A) (A) (A) (A) (A) (A) (A) (A)
                 (A) (A) (A) (A) (A) (A) (A) (A) (A) (A) (A) (A)
                 (A) (A) (A) (A) (A) (A) (A) (A) (A) (A) (A) (A)
                 (A) (A) (A) (A) (A) (A) (A) (A) (A) (A) (A) (A)
                 (A) (A) (A) (A) (A) (A) (A) (A) (A) (A) (A) (A)
                 (A) (A) (A) (A) (A) (A) (A) (A) (A) (A) (A) (A)
                 (A) (A) (A) (A) (A) (A) (A) (A) (A) (A) (A) (A)
                 (A) (A) (A) (A) (A) (A) (A) (A) (A) (A) (A) (A)
                 (A) (A) (A) (A) (A) (A) (A) (A) (A) (A) (A) (A)
                 (A) (A) (A) (A) (A) (A) (A) (A) (A) (A) (A) (A)
                 (A) (A) (A) (A) (A) (A) (A) (A) (A) (A) (A) (A)
                 (A) (A) (A) (A) (A) (A) (A) (A) (A) (A) (A) (A)
                 (A) (A) (A) (A) (A) (A) (A) (A) (A) (A) (A) (A)
                 (A) (A) (A) (A) (A) (A) (A) (A) (A) (A) (A) (A)
                 (A) (A) (A) (A) (A) (A) (A) (A) (A) (A) (A) (A)
                 (A) (A) (A) (A) (A) (A) (A) (A) (A) (A) (A) (A)
                 (A) (A) (A) (A) (A) (A) (A) (A) (A) (A) (A) (A)
                 (A) (A) (A) (A) (A) (A) (A) (A) (A) (A) (A) (A)
                 (A) (A) (A) (A) (A) (A) (A) (A) (A) (A) (A) (A)
                 (A) (A) (A) (A) (A) (A) (A) (A) (A) (A) (A) (A)
                 (A) (A) (A) (A) (A) (A) (A) (A) (A) (A) (A) (A)
                 (A) (A) (A) (A) (A) (A) (A) (A) (A) (A) (A) (A)
                 (A) (A) (A) (A) (A) (A) (A) (A) (A) (A) (A) (A)
                 (A) (A) (A) (A) (A) (A) (A) (A) (A) (A) (A) (A)
                 (A) (A) (A) (A) (A) (A) (A) (A) (A) (A) (A) (A)
                 (A) (A) (A) (A) (A) (A) (A) (A) (A) (A) (A) (A)
                 (A) (A) (A) (A) (A) (A) (A) (A) (A) (A) (A) (A)
                 (A) (A) (A) (A) (A) (A) (A) (A) (A) (A) (A) (A)
                 (A) (A) (A) (A) (A) (A) (A) (A) (A) (A) (A) (A)
                 (A) (A) (A) (A) (A) (A) (A) (A) (A) (A) (A) (A)
                 (A) (A) (A) (A) (A) (A) (A) (A) (A) (A) (A) (A)
                 (A) (A) (A) (A) (A) (A) (A) (A) (A) (A) (A) (A)
                 (A) (A) (A) (A) (A) (A) (A) (A) (A) (A) (A) (A)
                 (A) (A) (A) (A) (A) (A) (A) (A) (A) (A) (A) (A)
                 (A) (A) (A) (A) (A) (A) (A) (A) (A) (A) (A) (A)
                 (A) (A) (A) (A) (A) (A) (A) (A) (A) (A) (A) (A)
                 (A) (A) (A) (A) (A) (A) (A) (A) (A) (A) (A) (A)
                 (A) (A) (A) (A) (A) (A) (A) (A) (A) (A) (A) (A)
                 (A) (A) (A) (A) (A) (A) (A) (A) (A) (A) (A) (A)
                 (A) (A) (A) (A) (A) (A) (A) (A) (A) (A) (A) (A)
                 (A) (A) (A) (A) (A) (A) (A) (A) (A) (A) (A) (A)
                 (A) (A) (A) (A) (A) (A) (A) (A) (A) (A) (A) (A)
                 (A) (A) (A) (A) (A) (A) (A) (A) (A) (A) (A) (A)
                 (A) (A) (A) (A) (A) (A) (A) (A) (A) (A) (A) (A)
                 (A) (A) (A) (A) (A) (A) (A) (A) (A) (A) (A) (A)
                 (A) (A) (A) (A) (A) (A) (A) (A) (A) (A) (A) (A)
                 (A) (A) (A) (A) (A) (A) (A) (A) (A) (A) (A) (A)
                 (A) (A) (A) (A) (A) (A) (A) (A) (A) (A) (A) (A)
                 (A) (A) (A) (A) (A) (A) (A) (A) (A) (A) (A) (A)
                 (A) (A) (A) (A) (A) (A) (A) (A) (A) (A) (A) (A)
                 (A) (A) (A) (A) (A) (A) (A) (A) (A) (A) (A) (A)
                 (A) (A) (A) (A) (A) (A) (A) (A) (A) (A) (A) (A)
                 (A) (A) (A) (A) (A) (A) (A) (A) (A) (A) (A) (A)
                 (A) (A) (A) (A) (A) (A) (A) (A) (A) (A) (A) (A)
                 (A) (A) (A) (A) (A) (A) (A) (A) (A) (A) (A) (A)
                 (A) (A) (A) (A) (A) (A) (A) (A) (A) (A) (A) (A)
                 (A) (A) (A) (A) (A) (A) (A) (A) (A) (A) (A) (A)
                 (A) (A) (A) (A) (A) (A) (A) (A) (A) (A) (A) (A)
                 (A) (A) (A) (A) (A) (A) (A) (A) (A) (A) (A) (A)
                 (A) (A) (A) (A) (A) (A) (A) (A) (A) (A) (A) (A)
                 (A) (A) (A) (A) (A) (A) (A) (A) (A) (A) (A) (A)
                 (A) (A) (A) (A) (A) (A) (A) (A) (A) (A) (A) (A)
                 (A) (A) (A) (A) (A) (A) (A) (A) (A) (A) (A) (A)
                 (A) (A) (A) (A) (A) (A) (A) (A) (A) (A) (A) (A)
                 (A) (A) (A) (A) (A) (A) (A) (A) (A) (A) (A) (A)
                 (A) (A) (A) (A) (A) (A) (A) (A) (A) (A) (A)
 The electronic state is 1-A.
 Alpha  occ. eigenvalues --  -19.17728 -19.17405 -19.17138 -19.16833 -19.16725
 Alpha  occ. eigenvalues --  -19.14684 -19.14416 -19.14301 -14.35666 -14.35307
 Alpha  occ. eigenvalues --  -14.35057 -14.34563 -10.25032 -10.24923 -10.24706
 Alpha  occ. eigenvalues --  -10.24643 -10.24536 -10.24213 -10.24159 -10.23974
 Alpha  occ. eigenvalues --  -10.23573 -10.23556 -10.23456 -10.23294 -10.22920
 Alpha  occ. eigenvalues --  -10.22549 -10.22365 -10.22235 -10.22226 -10.22183
 Alpha  occ. eigenvalues --  -10.22134 -10.22118 -10.22106 -10.22087 -10.22050
 Alpha  occ. eigenvalues --  -10.21832 -10.21827 -10.21803 -10.21510 -10.21499
 Alpha  occ. eigenvalues --  -10.20583 -10.19146 -10.19121 -10.19055 -10.19011
 Alpha  occ. eigenvalues --  -10.18986 -10.18948 -10.18927 -10.18794 -10.18771
 Alpha  occ. eigenvalues --  -10.18622 -10.18608 -10.18539 -10.18504 -10.18500
 Alpha  occ. eigenvalues --  -10.18465 -10.18437 -10.18393 -10.18386 -10.18385
 Alpha  occ. eigenvalues --  -10.18374 -10.18367 -10.18322 -10.18296 -10.18244
 Alpha  occ. eigenvalues --  -10.18240 -10.18226 -10.18204 -10.18165 -10.18153
 Alpha  occ. eigenvalues --  -10.18153 -10.18120 -10.18101 -10.18064 -10.18005
 Alpha  occ. eigenvalues --  -10.17934 -10.17923 -10.17920 -10.17914 -10.17903
 Alpha  occ. eigenvalues --  -10.17900 -10.17887 -10.17775 -10.17733 -10.17687
 Alpha  occ. eigenvalues --  -10.17638 -10.17603 -10.17587 -10.17576 -10.17546
 Alpha  occ. eigenvalues --  -10.17536 -10.17508 -10.17498  -1.07428  -1.07280
 Alpha  occ. eigenvalues --   -1.07015  -1.06552  -1.06392  -1.04419  -1.04231
 Alpha  occ. eigenvalues --   -1.04083  -0.95838  -0.95826  -0.95448  -0.95085
 Alpha  occ. eigenvalues --   -0.89225  -0.86363  -0.85549  -0.85407  -0.84938
 Alpha  occ. eigenvalues --   -0.84770  -0.84681  -0.84555  -0.83947  -0.83727
 Alpha  occ. eigenvalues --   -0.82555  -0.82507  -0.79795  -0.77731  -0.76598
 Alpha  occ. eigenvalues --   -0.76348  -0.76012  -0.75810  -0.75617  -0.75564
 Alpha  occ. eigenvalues --   -0.75491  -0.75040  -0.74699  -0.74483  -0.74426
 Alpha  occ. eigenvalues --   -0.74354  -0.74163  -0.73997  -0.73881  -0.73794
 Alpha  occ. eigenvalues --   -0.73451  -0.73194  -0.72074  -0.72015  -0.70332
 Alpha  occ. eigenvalues --   -0.70294  -0.70072  -0.69505  -0.69144  -0.68747
 Alpha  occ. eigenvalues --   -0.68356  -0.67704  -0.67625  -0.67230  -0.67110
 Alpha  occ. eigenvalues --   -0.63946  -0.63477  -0.62645  -0.62222  -0.61969
 Alpha  occ. eigenvalues --   -0.61639  -0.61231  -0.60846  -0.60645  -0.59967
 Alpha  occ. eigenvalues --   -0.59763  -0.59479  -0.59399  -0.59216  -0.58983
 Alpha  occ. eigenvalues --   -0.58777  -0.58316  -0.58022  -0.57790  -0.57644
 Alpha  occ. eigenvalues --   -0.56882  -0.56266  -0.56142  -0.55471  -0.54229
 Alpha  occ. eigenvalues --   -0.54059  -0.53379  -0.53357  -0.53074  -0.52529
 Alpha  occ. eigenvalues --   -0.52248  -0.51820  -0.51433  -0.51070  -0.50853
 Alpha  occ. eigenvalues --   -0.50649  -0.49874  -0.49737  -0.49521  -0.49377
 Alpha  occ. eigenvalues --   -0.49137  -0.49029  -0.48880  -0.48517  -0.48319
 Alpha  occ. eigenvalues --   -0.48094  -0.47636  -0.47375  -0.47196  -0.47162
 Alpha  occ. eigenvalues --   -0.47090  -0.46917  -0.46673  -0.46569  -0.46507
 Alpha  occ. eigenvalues --   -0.46404  -0.46285  -0.46051  -0.45846  -0.45434
 Alpha  occ. eigenvalues --   -0.45303  -0.45082  -0.44929  -0.44775  -0.44625
 Alpha  occ. eigenvalues --   -0.44570  -0.44514  -0.44355  -0.44196  -0.44011
 Alpha  occ. eigenvalues --   -0.43748  -0.43421  -0.43347  -0.43185  -0.43077
 Alpha  occ. eigenvalues --   -0.42771  -0.42666  -0.42580  -0.42529  -0.42405
 Alpha  occ. eigenvalues --   -0.42342  -0.42204  -0.42128  -0.42028  -0.41762
 Alpha  occ. eigenvalues --   -0.41671  -0.41660  -0.41526  -0.41319  -0.41208
 Alpha  occ. eigenvalues --   -0.41066  -0.40828  -0.39687  -0.39239  -0.39076
 Alpha  occ. eigenvalues --   -0.38594  -0.38423  -0.38213  -0.38153  -0.38082
 Alpha  occ. eigenvalues --   -0.37927  -0.37811  -0.37687  -0.37591  -0.37367
 Alpha  occ. eigenvalues --   -0.37077  -0.37072  -0.36978  -0.36905  -0.36545
 Alpha  occ. eigenvalues --   -0.36421  -0.36292  -0.36126  -0.36085  -0.35933
 Alpha  occ. eigenvalues --   -0.35896  -0.35869  -0.35639  -0.35533  -0.35470
 Alpha  occ. eigenvalues --   -0.35411  -0.35143  -0.34919  -0.34834  -0.34568
 Alpha  occ. eigenvalues --   -0.33873  -0.33684  -0.33422  -0.33266  -0.33121
 Alpha  occ. eigenvalues --   -0.33080  -0.32991  -0.32810  -0.32640  -0.32566
 Alpha  occ. eigenvalues --   -0.32518  -0.32445  -0.32276  -0.32103  -0.31678
 Alpha  occ. eigenvalues --   -0.31578  -0.31371  -0.30794  -0.30303  -0.29480
 Alpha  occ. eigenvalues --   -0.28947  -0.27355  -0.27202  -0.26869  -0.26630
 Alpha  occ. eigenvalues --   -0.26318  -0.26001  -0.25689  -0.25590  -0.25214
 Alpha  occ. eigenvalues --   -0.24772  -0.24168  -0.24122  -0.23949  -0.23674
 Alpha  occ. eigenvalues --   -0.23501  -0.23491  -0.23218  -0.22889  -0.22644
 Alpha  occ. eigenvalues --   -0.22392  -0.22142  -0.21911  -0.21509  -0.19138
 Alpha  occ. eigenvalues --   -0.18876  -0.17102  -0.16794
 Alpha virt. eigenvalues --   -0.02850  -0.02700  -0.01894  -0.01724  -0.01535
 Alpha virt. eigenvalues --   -0.01320  -0.01227  -0.00917  -0.00604  -0.00444
 Alpha virt. eigenvalues --    0.00205   0.00312   0.00535   0.00673   0.00776
 Alpha virt. eigenvalues --    0.00974   0.01191   0.01383   0.01450   0.02215
 Alpha virt. eigenvalues --    0.02324   0.02368   0.04206   0.04665   0.05014
 Alpha virt. eigenvalues --    0.05245   0.05484   0.05865   0.06145   0.06667
 Alpha virt. eigenvalues --    0.06943   0.07173   0.07183   0.07322   0.07581
 Alpha virt. eigenvalues --    0.07757   0.08196   0.08259   0.08592   0.08875
 Alpha virt. eigenvalues --    0.09050   0.09350   0.09557   0.09665   0.09861
 Alpha virt. eigenvalues --    0.09983   0.10180   0.10393   0.10562   0.10668
 Alpha virt. eigenvalues --    0.10968   0.11114   0.11163   0.11420   0.11572
 Alpha virt. eigenvalues --    0.11631   0.11806   0.11960   0.12361   0.12437
 Alpha virt. eigenvalues --    0.12584   0.12600   0.12690   0.12814   0.12972
 Alpha virt. eigenvalues --    0.12981   0.13160   0.13175   0.13436   0.13483
 Alpha virt. eigenvalues --    0.13576   0.13696   0.13825   0.14012   0.14111
 Alpha virt. eigenvalues --    0.14239   0.14290   0.14304   0.14385   0.14626
 Alpha virt. eigenvalues --    0.14684   0.14732   0.14813   0.14865   0.15071
 Alpha virt. eigenvalues --    0.15316   0.15488   0.15570   0.15705   0.15817
 Alpha virt. eigenvalues --    0.15960   0.16202   0.16284   0.16470   0.16583
 Alpha virt. eigenvalues --    0.16875   0.16923   0.17290   0.17378   0.17511
 Alpha virt. eigenvalues --    0.17634   0.17836   0.18235   0.18519   0.18917
 Alpha virt. eigenvalues --    0.19002   0.19165   0.19348   0.19635   0.19738
 Alpha virt. eigenvalues --    0.19995   0.20288   0.20378   0.20730   0.21040
 Alpha virt. eigenvalues --    0.21519   0.21758   0.22370   0.23136   0.23393
 Alpha virt. eigenvalues --    0.23494   0.24104   0.24488   0.24708   0.24890
 Alpha virt. eigenvalues --    0.24972   0.25075   0.25596   0.25814   0.25886
 Alpha virt. eigenvalues --    0.26095   0.26297   0.26717   0.26846   0.26970
[...]
 Alpha virt. eigenvalues --    1.81092   1.81208   1.81522   1.81792   1.81869
 Alpha virt. eigenvalues --    1.82132   1.82214   1.82307   1.82505   1.82735
 Alpha virt. eigenvalues --    1.82890   1.82987   1.83236   1.83387   1.83667
 Alpha virt. eigenvalues --    1.83843   1.83954   1.84107   1.84310   1.84551
 Alpha virt. eigenvalues --    1.84703   1.84803   1.84947   1.85219   1.85279
 Alpha virt. eigenvalues --    1.85365   1.85526   1.85736   1.85938   1.86000
 Alpha virt. eigenvalues --    1.86267   1.86396   1.86561   1.86651   1.86779
 Alpha virt. eigenvalues --    1.87409   1.87425   1.87577   1.87630   1.87734
 Alpha virt. eigenvalues --    1.87931   1.88187   1.88209   1.88522   1.88626
 Alpha virt. eigenvalues --    1.89062   1.89092   1.89305   1.89396   1.89453
 Alpha virt. eigenvalues --    1.89800   1.90113   1.90502   1.90636   1.90929
 Alpha virt. eigenvalues --    1.90958   1.91234   1.91361   1.91503   1.91710
 Alpha virt. eigenvalues --    1.92167   1.92306   1.92576   1.92904   1.93047
 Alpha virt. eigenvalues --    1.93271   1.93490   1.93689   1.93971   1.94149
 Alpha virt. eigenvalues --    1.94486   1.94717   1.95104   1.95255   1.95493
 Alpha virt. eigenvalues --    1.95696   1.95809   1.96378   1.96531   1.96925
 Alpha virt. eigenvalues --    1.97096   1.97296   1.97437   1.97688   1.97744
 Alpha virt. eigenvalues --    1.98043   1.98687   1.98810   1.99056   1.99426
 Alpha virt. eigenvalues --    1.99594   1.99845   2.00085   2.00159   2.00335
 Alpha virt. eigenvalues --    2.00630   2.01183   2.01506   2.02236   2.02472
 Alpha virt. eigenvalues --    2.02558   2.02748   2.03047   2.03285   2.03371
 Alpha virt. eigenvalues --    2.03577   2.03912   2.04320   2.04354   2.04449
 Alpha virt. eigenvalues --    2.04897   2.05089   2.05257   2.05540   2.05685
 Alpha virt. eigenvalues --    2.05820   2.05888   2.05993   2.06230   2.06429
 Alpha virt. eigenvalues --    2.06594   2.06700   2.07049   2.07180   2.07408
 Alpha virt. eigenvalues --    2.07871   2.08104   2.08432   2.08679   2.08782
 Alpha virt. eigenvalues --    2.09087   2.09209   2.09542   2.09713   2.10069
 Alpha virt. eigenvalues --    2.10484   2.10872   2.11335   2.11454   2.11583
 Alpha virt. eigenvalues --    2.11707   2.12071   2.12376   2.12762   2.13438
 Alpha virt. eigenvalues --    2.13692   2.13906   2.14140   2.14676   2.14733
 Alpha virt. eigenvalues --    2.15834   2.16098   2.16403   2.16820   2.17042
 Alpha virt. eigenvalues --    2.17373   2.17733   2.17887   2.18075   2.18244
 Alpha virt. eigenvalues --    2.18708   2.18868   2.19023   2.19390   2.19486
 Alpha virt. eigenvalues --    2.20019   2.20454   2.20558   2.20787   2.21084
 Alpha virt. eigenvalues --    2.21887   2.21980   2.22447   2.22793   2.23203
 Alpha virt. eigenvalues --    2.23377   2.23737   2.24350   2.24852   2.25067
 Alpha virt. eigenvalues --    2.25713   2.25869   2.26424   2.26925   2.27468
 Alpha virt. eigenvalues --    2.28053   2.28436   2.29056   2.29514   2.29810
 Alpha virt. eigenvalues --    2.30047   2.30593   2.31041   2.31348   2.31540
 Alpha virt. eigenvalues --    2.31975   2.32302   2.32392   2.32502   2.32938
 Alpha virt. eigenvalues --    2.33223   2.33556   2.33731   2.34349   2.34467
 Alpha virt. eigenvalues --    2.34617   2.35247   2.35879   2.36032   2.36379
 Alpha virt. eigenvalues --    2.37217   2.37911   2.38691   2.39049   2.39243
 Alpha virt. eigenvalues --    2.39524   2.39750   2.40075   2.40119   2.40255
 Alpha virt. eigenvalues --    2.40383   2.40795   2.41065   2.41426   2.41735
 Alpha virt. eigenvalues --    2.42114   2.42228   2.42661   2.42807   2.43023
 Alpha virt. eigenvalues --    2.43340   2.43654   2.43792   2.44067   2.44532
 Alpha virt. eigenvalues --    2.44616   2.44794   2.45246   2.45366   2.45881
 Alpha virt. eigenvalues --    2.46171   2.46280   2.46657   2.46909   2.47110
 Alpha virt. eigenvalues --    2.47220   2.47719   2.48107   2.48451   2.48893
 Alpha virt. eigenvalues --    2.49458   2.49708   2.49865   2.50283   2.50456
 Alpha virt. eigenvalues --    2.51097   2.51385   2.51709   2.52038   2.52235
 Alpha virt. eigenvalues --    2.52747   2.52779   2.53235   2.53501   2.53834
 Alpha virt. eigenvalues --    2.54207   2.54484   2.55099   2.55256   2.55808
 Alpha virt. eigenvalues --    2.56628   2.56990   2.57818   2.58287   2.58568
 Alpha virt. eigenvalues --    2.58711   2.59786   2.59990   2.60534   2.60905
 Alpha virt. eigenvalues --    2.61991   2.63110   2.63718   2.64155   2.65132
 Alpha virt. eigenvalues --    2.66190   2.66276   2.66436   2.66647   2.67605
 Alpha virt. eigenvalues --    2.67780   2.68142   2.68866   2.69286   2.70801
 Alpha virt. eigenvalues --    2.70995   2.71496   2.71720   2.72573   2.72846
 Alpha virt. eigenvalues --    2.73219   2.73538   2.74033   2.74330   2.74574
 Alpha virt. eigenvalues --    2.74879   2.75984   2.76264   2.76666   2.78107
 Alpha virt. eigenvalues --    2.78139   2.78561   2.78868   2.79814   2.80150
 Alpha virt. eigenvalues --    2.80722   2.80897   2.81003   2.81139   2.81826
 Alpha virt. eigenvalues --    2.81963   2.82224   2.83328   2.83624   2.84144
 Alpha virt. eigenvalues --    2.84340   2.85055   2.85444   2.85821   2.86829
 Alpha virt. eigenvalues --    2.87195   2.88244   2.88285   2.88670   2.89294
 Alpha virt. eigenvalues --    2.89896   2.90211   2.91621   2.91905   2.92085
 Alpha virt. eigenvalues --    2.93791   2.94735   2.95279   2.95801   2.96190
 Alpha virt. eigenvalues --    2.97084   2.98012   2.98635   2.98983   2.99438
 Alpha virt. eigenvalues --    2.99911   3.00573   3.01155   3.02754   3.02989
 Alpha virt. eigenvalues --    3.03661   3.03763   3.03989   3.04429   3.05446
 Alpha virt. eigenvalues --    3.06324   3.07088   3.07557   3.08189   3.08502
 Alpha virt. eigenvalues --    3.09703   3.10096   3.11663   3.19736   3.21636
 Alpha virt. eigenvalues --    3.22346   3.29223   3.30221   3.30351   3.30719
 Alpha virt. eigenvalues --    3.31259   3.31488   3.32588   3.32909   3.34570
 Alpha virt. eigenvalues --    3.34789   3.35780   3.39946   3.40740   3.41393
 Alpha virt. eigenvalues --    3.41759   3.41968   3.42139   3.42606   3.55516
 Alpha virt. eigenvalues --    3.55849   3.64392   3.64537   3.64857   3.65023
 Alpha virt. eigenvalues --    3.65429   3.65517   3.66082   3.66124
          Condensed to atoms (all electrons):
 Mulliken atomic charges:
              1
     1  C   -0.308000
     2  C    0.084291
     3  C    0.046748
     4  C    0.046480
     5  C    0.101892
     6  C    0.095603
     7  C    0.045196
     8  C    0.049516
     9  C    0.085590
    10  C    0.004415
    11  C    0.133158
    12  C    0.056027
    13  C   -0.014264
    14  C   -0.017068
    15  C    0.054039
    16  C    0.108628
    17  C    0.019359
    18  C    0.024524
    19  C    0.112454
    20  C    0.052764
    21  C   -0.018282
    22  C   -0.015493
    23  C    0.102857
    24  C    0.059466
    25  C    0.038781
    26  N   -0.270467
    27  N   -0.282328
    28  N   -0.280248
    29  N   -0.285281
    30  C    0.078266
    31  C    0.027754
    32  C    0.044119
    33  C    0.042190
    34  C    0.040261
    35  C   -0.007479
    36  C    0.083779
    37  C    0.007121
    38  C    0.033693
    39  C    0.048058
    40  C    0.049369
    41  C    0.060984
    42  C    0.061010
    43  C    0.049407
    44  C    0.041056
    45  C    0.046031
    46  C   -0.013614
    47  C    0.152128
    48  C    0.133660
    49  C   -0.010152
    50  C    0.043699
    51  C    0.049847
    52  C    0.066587
    53  C    0.136260
    54  C   -0.000683
    55  C    0.044206
    56  C    0.045761
    57  C    0.064133
    58  C    0.043460
    59  C    0.054065
    60  C    0.043692
    61  C    0.059828
    62  C    0.072338
    63  C    0.144623
    64  C   -0.005360
    65  C    0.044440
    66  C    0.049209
    67  C    0.054172
    68  C    0.136372
    69  C   -0.009946
    70  C    0.040896
    71  C    0.052104
    72  C    0.060652
    73  C    0.015800
    74  C    0.045849
    75  C    0.045845
    76  C    0.063892
    77  C    0.053307
    78  H   -0.050847
    79  H   -0.052290
    80  H   -0.034264
    81  H   -0.057243
    82  H   -0.057915
    83  H   -0.028871
    84  H   -0.057342
    85  H   -0.050994
    86  H   -0.058810
    87  H   -0.030527
    88  H   -0.035031
    89  H   -0.037968
    90  H   -0.039853
    91  O   -0.300947
    92  H   -0.036732
    93  H   -0.039799
    94  H   -0.039018
    95  H   -0.034274
    96  H   -0.033698
    97  O   -0.268582
    98  H   -0.036110
    99  H   -0.037934
   100  H   -0.029975
   101  O   -0.284921
   102  H   -0.036813
   103  O   -0.282850
   104  H   -0.038932
   105  H   -0.033886
   106  H   -0.039095
   107  O   -0.298611
   108  H   -0.040639
   109  H   -0.034839
   110  H   -0.027246
   111  H   -0.024143
   112  H   -0.043334
   113  H   -0.043875
   114  H   -0.041741
   115  O   -0.300991
   116  H   -0.033492
   117  O   -0.284943
   118  H   -0.037363
   119  H   -0.034275
   120  H   -0.040833
   121  H   -0.033859
   122  H   -0.036102
   123  H   -0.036372
   124  H   -0.034838
   125  O   -0.272411
   126  H   -0.037752
   127  H   -0.037858
   128  H   -0.039650
   129  H   -0.039386
   130  C    0.127497
   131  C    0.121049
   132  C    0.118767
   133  C    0.117084
   134  C    0.131566
   135  C    0.115267
   136  C    0.125117
   137  C    0.122476
   138  H    0.005693
   139  H    0.025255
   140  H    0.037743
   141  H    0.033611
   142  H    0.022138
   143  H    0.037528
   144  H    0.024545
   145  H    0.049256
   146  H    0.009388
   147  H    0.050090
   148  H    0.021648
   149  H    0.026477
   150  H    0.034673
   151  H    0.025781
   152  H    0.027923
   153  H    0.046853
   154  H    0.022419
   155  H    0.040979
   156  H    0.041262
   157  H    0.032832
   158  H    0.031300
   159  H    0.006032
   160  H    0.034942
   161  H    0.039836
 Sum of Mulliken atomic charges =   0.00000
 Mulliken charges with hydrogens summed into heavy atoms:
              1
     1  C   -0.308000
     2  C    0.084291
     3  C    0.046748
     4  C    0.046480
     5  C    0.101892
     6  C    0.095603
     7  C    0.045196
     8  C    0.049516
     9  C    0.085590
    10  C   -0.033553
    11  C    0.133158
    12  C    0.025500
    13  C   -0.073074
    14  C   -0.074983
    15  C    0.025168
    16  C    0.108628
    17  C   -0.015673
    18  C   -0.027766
    19  C    0.112454
    20  C    0.018501
    21  C   -0.075525
    22  C   -0.072835
    23  C    0.051864
    24  C    0.059466
    25  C   -0.012067
    26  N   -0.270467
    27  N   -0.282328
    28  N   -0.280248
    29  N   -0.285281
    30  C    0.078266
    31  C    0.027754
    32  C    0.044119
    33  C    0.042190
    34  C    0.040261
    35  C   -0.007479
    36  C    0.083779
    37  C    0.007121
    38  C   -0.000581
    39  C    0.009040
    40  C    0.011617
    41  C    0.021131
    42  C    0.061010
    43  C    0.012675
    44  C    0.001257
    45  C    0.008173
    46  C   -0.047312
    47  C    0.152128
    48  C    0.133660
    49  C   -0.044990
    50  C    0.007327
    51  C    0.013745
    52  C    0.032729
    53  C    0.136260
    54  C   -0.034175
    55  C    0.006843
    56  C    0.011486
    57  C    0.023300
    58  C    0.016215
    59  C    0.019226
    60  C    0.003053
    61  C    0.020734
    62  C    0.072338
    63  C    0.144623
    64  C   -0.042174
    65  C    0.004791
    66  C    0.010278
    67  C    0.020287
    68  C    0.136372
    69  C   -0.039921
    70  C    0.001510
    71  C    0.014170
    72  C    0.024542
    73  C   -0.008342
    74  C    0.002515
    75  C    0.001970
    76  C    0.022151
    77  C    0.053307
    91  O   -0.300947
    97  O   -0.268582
   101  O   -0.284921
   103  O   -0.282850
   107  O   -0.298611
   115  O   -0.300991
   117  O   -0.284943
   125  O   -0.272411
   130  C    0.196188
   131  C    0.214326
   132  C    0.201956
   133  C    0.215299
   134  C    0.219943
   135  C    0.225518
   136  C    0.230512
   137  C    0.203286
 Sum of Mulliken charges with hydrogens summed into heavy atoms =   0.00000
 Electronic spatial extent (au):  <R**2>=          90225.0041
 Charge=              0.0000 electrons
 Dipole moment (field-independent basis, Debye):
    X=             -1.3831    Y=             -5.2543    Z=             -2.6554  Tot=              6.0474
 Quadrupole moment (field-independent basis, Debye-Ang):
   XX=           -500.5807   YY=           -488.1484   ZZ=           -511.1172
   XY=              6.3870   XZ=             -6.4990   YZ=             -3.0793
 Traceless Quadrupole moment (field-independent basis, Debye-Ang):
   XX=             -0.6319   YY=             11.8004   ZZ=            -11.1684
   XY=              6.3870   XZ=             -6.4990   YZ=             -3.0793
 Octapole moment (field-independent basis, Debye-Ang**2):
  XXX=             40.8330  YYY=           -194.4455  ZZZ=            -60.6226  XYY=            -57.0547
  XXY=           -307.5701  XXZ=            -49.3052  XZZ=            -55.4406  YZZ=              1.6608
  YYZ=           -123.3004  XYZ=            -19.6731
 Hexadecapole moment (field-independent basis, Debye-Ang**3):
 XXXX=         -56868.5557 YYYY=         -43662.3937 ZZZZ=         -16884.5101 XXXY=            -70.5478
 XXXZ=           -248.2743 YYYX=            916.3934 YYYZ=            -46.8265 ZZZX=              9.8233
 ZZZY=           -151.5922 XXYY=         -17369.3709 XXZZ=         -11850.6039 YYZZ=          -9835.2818
 XXYZ=            361.5265 YYXZ=            261.3017 ZZXY=            220.9266
 N-N= 1.744305325049D+04 E-N=-4.407022665825D+04  KE= 3.922720625354D+03
 Leave Link  601 at Mon Feb  2 23:30:22 2015, MaxMem= 2147483648 cpu:      80.0
 (Enter /opt/g09/l9999.exe)
 1\1\GINC-CHPC-SCANDIUM\SP\RB3LYP\CC-pVDZ\C81H68N4O8\JARVIST\02-Feb-201
 5\0\\#p sp B3LYP/cc-pVDZ\\Auto Spiro; and yes I said yes I will Yes.\\
 0,1\C,0,-0.038574,0.039905,0.017485\C,0,-0.881721,0.867467,0.993186\C,
 0,-0.656824,0.440334,2.31961\C,0,0.362486,-0.60977,2.316194\C,0,0.7671
 5,-0.843081,0.989835\C,0,-0.877857,-0.800187,-0.961694\C,0,-0.379038,-
 0.66172,-2.269524\C,0,0.72858,0.295187,-2.257089\C,0,0.895434,0.781675
 ,-0.94549\C,0,-1.989411,-1.586259,-0.690558\C,0,-2.620094,-2.27479,-1.
 746255\C,0,-2.079715,-2.180468,-3.045817\C,0,-0.97944,-1.372299,-3.311
 135\C,0,0.965207,-1.329589,3.349316\C,0,1.973521,-2.244716,3.0559\C,0,
 2.421473,-2.433773,1.735195\C,0,1.791809,-1.726557,0.690856\C,0,-1.813
 127,1.854752,0.709311\C,0,-2.53715,2.44655,1.764255\C,0,-2.292934,2.03
 4252,3.084964\C,0,-1.366393,1.031888,3.364589\C,0,1.572866,0.739527,-3
 .27912\C,0,2.572629,1.661817,-2.982575\C,0,2.739695,2.148371,-1.676557
 \C,0,1.888199,1.708139,-0.65009\N,0,-3.791219,-3.040291,-1.534061\N,0,
 3.509407,-3.304025,1.449569\N,0,-3.525479,3.431784,1.482628\N,0,3.8083
 88,3.064986,-1.405503\C,0,5.141604,2.591626,-1.498095\C,0,-3.211326,4.
 504487,0.599664\C,0,3.51736,4.217611,-0.620904\C,0,-4.611451,3.626,2.3
 86329\C,0,-4.173371,-3.481173,-0.235175\C,0,-4.78184,-3.115927,-2.5567
 27\C,0,4.427118,-3.68492,2.471739\C,0,3.507529,-4.065381,0.244515\C,0,
 4.677617,-5.042167,2.720653\C,0,5.581424,-5.446355,3.701639\C,0,6.2408
 61,-4.492443,4.476784\C,0,6.000955,-3.138198,4.244666\C,0,5.119111,-2.
 723927,3.244911\C,0,-5.406548,-3.103783,0.302694\C,0,-5.832483,-3.5693
 78,1.549188\C,0,-5.00152,-4.408194,2.285595\C,0,-3.762943,-4.799552,1.
 769579\C,0,-3.349398,-4.362612,0.50663\C,0,-5.302956,-4.376022,-2.9406
 04\C,0,-6.292476,-4.445644,-3.927118\C,0,-6.751909,-3.281851,-4.549723
 \C,0,-6.235175,-2.040186,-4.188126\C,0,-5.263361,-1.965706,-3.189183\C
 ,0,4.685615,-4.172586,-0.53669\C,0,4.678156,-4.937319,-1.706835\C,0,3.
 50847,-5.574595,-2.128865\C,0,2.341405,-5.459729,-1.379157\C,0,2.35372
 1,-4.719943,-0.196281\C,0,-1.976841,5.164832,0.679481\C,0,-1.693705,6.
 263318,-0.130104\C,0,-2.649141,6.727802,-1.036476\C,0,-3.874252,6.0698
 8,-1.140842\C,0,-4.161176,4.959921,-0.34335\C,0,-5.489583,2.555471,2.6
 89066\C,0,-6.550586,2.75596,3.575599\C,0,-6.769471,4.014208,4.144822\C
 ,0,-5.923321,5.075361,3.839579\C,0,-4.84712,4.871572,2.973853\C,0,2.60
 4563,5.178655,-1.118692\C,0,2.30897,6.313915,-0.359996\C,0,2.921419,6.
 510451,0.882262\C,0,3.828841,5.57619,1.372422\C,0,4.114999,4.434059,0.
 621808\C,0,5.449122,1.239307,-1.269919\C,0,6.757142,0.76671,-1.366465\
 C,0,7.800424,1.640351,-1.672943\C,0,7.51232,2.985113,-1.907795\C,0,6.2
 03471,3.462733,-1.842484\H,0,2.030232,2.074838,0.362457\H,0,-2.001765,
 2.165016,-0.314125\H,0,-2.840941,2.503845,3.89519\H,0,-1.197747,0.7271
 34,4.394501\H,0,0.661557,-1.182277,4.382793\H,0,2.441527,-2.800304,3.8
 60736\H,0,1.454486,0.374748,-4.296404\H,0,3.238476,2.021194,-3.761149\
 H,0,-0.598956,-1.300915,-4.327214\H,0,-2.545225,-2.735916,-3.852534\H,
 0,2.118799,-1.865532,-0.334499\H,0,-2.389754,-1.648127,0.316136\H,0,6.
 497652,-2.367958,4.827445\O,0,4.896574,-1.375766,3.103597\H,0,-6.04252
 1,-2.445898,-0.28198\H,0,-6.802316,-3.271001,1.937391\H,0,5.752115,-6.
 506235,3.869989\H,0,4.146737,-5.783796,2.131586\H,0,-3.132295,-5.46349
 1,2.349342\O,0,-2.185459,-4.738332,-0.087055\H,0,4.819767,3.69586,0.99
 2922\H,0,4.306981,5.723996,2.336296\H,0,1.623514,7.061736,-0.742668\O,
 0,2.087496,4.921978,-2.355712\H,0,-7.223634,1.939415,3.810933\O,0,-5.2
 23676,1.369154,2.070894\H,0,-6.08472,6.055525,4.278731\H,0,-4.172724,5
 .689452,2.740842\H,0,-4.635758,6.398213,-1.841915\O,0,-5.405793,4.3923
 76,-0.466596\H,0,-2.443808,7.593518,-1.660428\H,0,-0.737254,6.766674,-
 0.025961\H,0,-1.244936,4.814924,1.400939\H,0,4.645161,0.558597,-1.0112
 63\H,0,6.955443,-0.286002,-1.18255\H,0,8.824194,1.282545,-1.737646\H,0
 ,8.29468,3.69534,-2.15964\O,0,5.992013,4.804248,-2.074406\H,0,5.576883
 ,-5.022802,-2.306827\O,0,5.777599,-3.495413,-0.077807\H,0,3.518795,-6.
 152234,-3.048899\H,0,1.427038,-5.946629,-1.706083\H,0,1.453581,-4.6239
 47,0.401317\H,0,-4.853981,-1.005511,-2.890168\H,0,-6.591514,-1.132631,
 -4.666586\H,0,-7.514583,-3.35696,-5.319994\H,0,-6.697952,-5.405437,-4.
 226156\O,0,-4.781304,-5.459128,-2.300432\H,0,6.9382,-4.795991,5.252694
 \H,0,-5.309312,-4.770961,3.262488\H,0,-7.607352,4.153472,4.822431\H,0,
 2.686521,7.402925,1.455867\C,0,5.445462,5.110984,-3.359315\C,0,1.12313
 6,5.816139,-2.888906\C,0,-5.436387,3.06571,-1.004882\C,0,-5.989895,0.2
 30851,2.43161\C,0,-5.27918,-6.74429,-2.631201\C,0,-1.36407,-5.677476,0
 .584738\C,0,7.008035,-3.644958,-0.76838\C,0,5.473006,-0.764189,1.94606
 \H,0,6.100899,4.741342,-4.159896\H,0,5.391111,6.201201,-3.411531\H,0,4
 .441016,4.692199,-3.479584\H,0,0.845372,5.405039,-3.861247\H,0,1.53939
 2,6.823391,-3.027606\H,0,0.2323,5.872881,-2.252094\H,0,-6.493722,2.821
 757,-1.133339\H,0,-4.975732,2.34294,-0.326071\H,0,-4.936058,3.033578,-
 1.982081\H,0,-5.565378,-0.605929,1.87564\H,0,-7.047061,0.353678,2.1590
 72\H,0,-5.916993,0.025173,3.507355\H,0,-4.728263,-7.446666,-2.003223\H
 ,0,-5.102282,-6.987034,-3.687577\H,0,-6.352449,-6.830829,-2.41604\H,0,
 -0.535452,-5.885735,-0.09344\H,0,-1.904425,-6.611032,0.791163\H,0,-0.9
 70642,-5.272755,1.526565\H,0,7.73796,-3.06359,-0.202291\H,0,6.94701,-3
 .254933,-1.793015\H,0,7.326269,-4.694905,-0.799251\H,0,6.569878,-0.804
 18,1.99383\H,0,5.148538,0.277912,1.960478\H,0,5.135311,-1.246219,1.024
 905\\Version=EM64L-G09RevA.02\State=1-A\HF=-3948.4830481\RMSD=4.009e-0
 9\Dipole=-0.5441533,-2.0671877,-1.0446969\Quadrupole=-0.4698362,8.7732
 914,-8.3034552,4.748543,-4.831831,-2.2893515\PG=C01 [X(C81H68N4O8)]\\@


 IT IS THE BEHAVIOR AND DISTRIBUTION OF THE ELECTRONS 
 AROUND THE NUCLEUS THAT GIVES THE FUNDAMENTAL 
 CHARACTER OF AN ATOM:  IT MUST BE THE SAME FOR MOLECULES.

                               -- C. A. COULSON, 1951
 Job cpu time:  0 days 11 hours 45 minutes 20.8 seconds.
 File lengths (MBytes):  RWF=   1440 Int=      0 D2E=      0 Chk=     94 Scr=      1
 Normal termination of Gaussian 09 at Mon Feb  2 23:30:23 2015.
