 Entering Gaussian System, Link 0=g09
 Input=sp_3_B3LYP_cc-pVDZ.com
 Output=sp_3_B3LYP_cc-pVDZ.log
 Initial command:
 /opt/g09/l1.exe /home/jarvist/2014-07_SPIRO/b3lyp-631gs_opt/delta_scf/neutral/Gau-44111.inp -scrdir=/home/jarvist/2014-07_SPIRO/b3lyp-631gs_opt/delta_scf/neutral/
 Default is to use a total of   8 processors:
                                8 via shared-memory
                                1 via Linda
 Entering Link 1 = /opt/g09/l1.exe PID=     44113.
  
 Copyright (c) 1988,1990,1992,1993,1995,1998,2003,2009, Gaussian, Inc.
                  All Rights Reserved.
  
 This is part of the Gaussian(R) 09 program.  It is based on
 the Gaussian(R) 03 system (copyright 2003, Gaussian, Inc.),
 the Gaussian(R) 98 system (copyright 1998, Gaussian, Inc.),
 the Gaussian(R) 94 system (copyright 1995, Gaussian, Inc.),
 the Gaussian 92(TM) system (copyright 1992, Gaussian, Inc.),
 the Gaussian 90(TM) system (copyright 1990, Gaussian, Inc.),
 the Gaussian 88(TM) system (copyright 1988, Gaussian, Inc.),
 the Gaussian 86(TM) system (copyright 1986, Carnegie Mellon
 University), and the Gaussian 82(TM) system (copyright 1983,
 Carnegie Mellon University). Gaussian is a federally registered
 trademark of Gaussian, Inc.
  
 This software contains proprietary and confidential information,
 including trade secrets, belonging to Gaussian, Inc.
  
 This software is provided under written license and may be
 used, copied, transmitted, or stored only in accord with that
 written license.
  
 The following legend is applicable only to US Government
 contracts under FAR:
  
                    RESTRICTED RIGHTS LEGEND
  
 Use, reproduction and disclosure by the US Government is
 subject to restrictions as set forth in subparagraphs (a)
 and (c) of the Commercial Computer Software - Restricted
 Rights clause in FAR 52.227-19.
  
 Gaussian, Inc.
 340 Quinnipiac St., Bldg. 40, Wallingford CT 06492
  
  
 ---------------------------------------------------------------
 Warning -- This program may not be used in any manner that
 competes with the business of Gaussian, Inc. or will provide
 assistance to any competitor of Gaussian, Inc.  The licensee
 of this program is prohibited from giving any competitor of
 Gaussian, Inc. access to this program.  By using this program,
 the user acknowledges that Gaussian, Inc. is engaged in the
 business of creating and licensing software in the field of
 computational chemistry and represents and warrants to the
 licensee that it is not a competitor of Gaussian, Inc. and that
 it will not use this program in any manner prohibited above.
 ---------------------------------------------------------------
  

 Cite this work as:
 Gaussian 09, Revision A.02,
 M. J. Frisch, G. W. Trucks, H. B. Schlegel, G. E. Scuseria, 
 M. A. Robb, J. R. Cheeseman, G. Scalmani, V. Barone, B. Mennucci, 
 G. A. Petersson, H. Nakatsuji, M. Caricato, X. Li, H. P. Hratchian, 
 A. F. Izmaylov, J. Bloino, G. Zheng, J. L. Sonnenberg, M. Hada, 
 M. Ehara, K. Toyota, R. Fukuda, J. Hasegawa, M. Ishida, T. Nakajima, 
 Y. Honda, O. Kitao, H. Nakai, T. Vreven, J. A. Montgomery, Jr., 
 J. E. Peralta, F. Ogliaro, M. Bearpark, J. J. Heyd, E. Brothers, 
 K. N. Kudin, V. N. Staroverov, R. Kobayashi, J. Normand, 
 K. Raghavachari, A. Rendell, J. C. Burant, S. S. Iyengar, J. Tomasi, 
 M. Cossi, N. Rega, J. M. Millam, M. Klene, J. E. Knox, J. B. Cross, 
 V. Bakken, C. Adamo, J. Jaramillo, R. Gomperts, R. E. Stratmann, 
 O. Yazyev, A. J. Austin, R. Cammi, C. Pomelli, J. W. Ochterski, 
 R. L. Martin, K. Morokuma, V. G. Zakrzewski, G. A. Voth, 
 P. Salvador, J. J. Dannenberg, S. Dapprich, A. D. Daniels, 
 O. Farkas, J. B. Foresman, J. V. Ortiz, J. Cioslowski, 
 and D. J. Fox, Gaussian, Inc., Wallingford CT, 2009.
 
 ******************************************
 Gaussian 09:  EM64L-G09RevA.02 11-Jun-2009
                 2-Feb-2015 
 ******************************************
 %mem=16GB
 %nprocs=24
 Will use up to   24 processors via shared memory.
 Default route:  MaxDisk=100GB
 -------------------
 #p sp B3LYP/cc-pVDZ
 -------------------
 1/38=1/1;
 2/12=2,17=6,18=5,40=1/2;
 3/5=16,11=2,16=1,25=1,30=1,74=-5/1,2,3;
 4//1;
 5/5=2,38=5/2;
 6/7=2,8=2,9=2,10=2,28=1/1;
 99/5=1,9=1/99;
 Leave Link    1 at Mon Feb  2 23:30:23 2015, MaxMem= 2147483648 cpu:       1.7
 (Enter /opt/g09/l101.exe)
 ------------------------------------------
 Auto Spiro; and yes I said yes I will Yes.
 ------------------------------------------
 Symbolic Z-matrix:
 Charge =  0 Multiplicity = 1
 C                    -0.05935   0.22169   0.14161 
 C                    -0.84783   1.12012   1.10425 
 C                    -0.63186   0.71913   2.43892 
 C                     0.36202  -0.35692   2.45253 
 C                     0.72438  -0.65454   1.12482 
 C                    -1.00547  -0.58724  -0.76221 
 C                    -0.7314   -0.33029  -2.11781 
 C                     0.41054   0.58081  -2.20281 
 C                     0.81912   0.92642  -0.89805 
 C                    -2.02167  -1.4516   -0.38555 
 C                    -2.78745  -2.08711  -1.38081 
 C                    -2.51476  -1.82616  -2.73746 
 C                    -1.49886  -0.94931  -3.10788 
 C                     0.96334  -1.05578   3.50186 
 C                     1.91356  -2.03427   3.2191 
 C                     2.28978  -2.31918   1.89211 
 C                     1.67971  -1.6146    0.83595 
 C                    -1.74756   2.13062   0.79956 
 C                    -2.46732   2.74475   1.84004 
 C                    -2.26184   2.33534   3.16853 
 C                    -1.34535   1.33023   3.47345 
 C                     1.12302   1.05485  -3.30679 
 C                     2.25267   1.84104  -3.09903 
 C                     2.68351   2.16002  -1.79904 
 C                     1.9422    1.71572  -0.68847 
 N                    -3.80923  -3.00405  -1.01487 
 N                     3.29073  -3.28818   1.62729 
 N                    -3.41926   3.76487   1.54197 
 N                     3.89703   2.88606  -1.62484 
 C                     5.08228   2.39206  -2.23156 
 C                    -2.98152   4.95319   0.90119 
 C                     3.91076   4.06987  -0.84086 
 C                    -4.77627   3.58387   1.91516 
 C                    -3.5324   -3.97231  -0.00271 
 C                    -5.064    -2.99491  -1.66925 
 C                     4.43119  -3.37365   2.48024 
 C                     3.19901  -4.13579   0.49451 
 C                     4.85821  -4.60831   2.97854 
 C                     5.98155  -4.70414   3.80265 
 C                     6.68383  -3.54766   4.16033 
 C                     6.25451  -2.30396   3.67329 
 C                     5.15062  -2.22007   2.83661 
 C                    -4.42205  -4.17817   1.05598 
 C                    -4.16157  -5.13384   2.04088 
 C                    -2.98208  -5.88519   1.9879 
 C                    -2.07842  -5.67489   0.9358 
 C                    -2.35461  -4.73735  -0.04987 
 C                    -5.75893  -4.19451  -1.8826 
 C                    -7.00188  -4.17208  -2.51681 
 C                    -7.57027  -2.97219  -2.96703 
 C                    -6.85856  -1.78328  -2.75237 
 C                    -5.62411  -1.78358  -2.10174 
 C                     4.34536  -4.43261  -0.2554 
 C                     4.24686  -5.26962  -1.36833 
 C                     3.01779  -5.81991  -1.75854 
 C                     1.88256  -5.51059  -0.99568 
 C                     1.96325  -4.68379   0.12517 
 C                    -1.7873    5.55446   1.32171 
 C                    -1.34978   6.72424   0.68988 
 C                    -2.09162   7.29593  -0.34553 
 C                    -3.2843    6.69029  -0.74978 
 C                    -3.7378    5.51563  -0.1384 
 C                    -5.37674   2.32081   1.84056 
 C                    -6.70385   2.12579   2.23055 
 C                    -7.46612   3.20667   2.68355 
 C                    -6.87637   4.4771    2.75225 
 C                    -5.5508    4.66142   2.38578 
 C                     2.85742   4.99746  -0.92965 
 C                     2.86467   6.15988  -0.17031 
 C                     3.93566   6.43542   0.69177 
 C                     4.99125   5.52278   0.78838 
 C                     4.96723   4.34698   0.03562 
 C                     5.30798   1.00778  -2.27073 
 C                     6.46537   0.51694  -2.88677 
 C                     7.40358   1.39067  -3.44144 
 C                     7.17265   2.76708  -3.38515 
 C                     6.01262   3.28046  -2.7932 
 H                     2.28249   1.9569    0.31441 
 H                    -1.92604   2.43826  -0.22673 
 H                    -2.83108   2.81701   3.95798 
 H                    -1.1936    1.03008   4.50721 
 H                     0.69454  -0.85074   4.53508 
 H                     2.37962  -2.58626   4.02862 
 H                     0.81401   0.80511  -4.31858 
 H                     2.8324    2.20178  -3.94296 
 H                    -1.29992  -0.76908  -4.16135 
 H                    -3.10708  -2.3238   -3.49829 
 H                     1.96715  -1.82205  -0.18957 
 H                    -2.23233  -1.64695   0.66138 
 O                     3.85423   7.61112   1.39472 
 C                     4.92591   7.94436   2.26015 
 O                    -8.77571   3.13261   3.07914 
 C                    -9.41357   1.86935   3.0259 
 O                     7.78642  -3.52182   4.96731 
 O                    -2.62391  -6.83935   2.90008 
 C                    -3.49509  -7.07985   3.99133 
 C                     8.26453  -4.75161   5.48559 
 H                     6.81365  -1.41622   3.95206 
 H                     4.83333  -1.25474   2.45445 
 H                    -5.33423  -3.59167   1.10724 
 H                    -4.87657  -5.27033   2.84419 
 H                     6.28639  -5.67878   4.16636 
 H                     4.30924  -5.50691   2.71438 
 H                    -1.16855  -6.26459   0.89241 
 H                    -1.64609  -4.59414  -0.85921 
 H                     5.78555   3.63987   0.12572 
 H                     5.82866   5.70208   1.45347 
 H                     2.04626   6.86969  -0.23767 
 H                     2.02821   4.8021   -1.60231 
 H                    -7.12901   1.131     2.1591 
 H                    -4.80126   1.47629   1.47514 
 H                    -7.47411   5.30813   3.1144 
 H                    -5.10459   5.64776   2.46039 
 H                    -8.91675   1.1358    3.6758 
 H                    -9.44589   1.47331   2.00155 
 H                    -10.43337   2.03132   3.38105 
 H                    -4.481    -7.42863   3.6546 
 H                    -3.62568  -6.18249   4.61132 
 H                    -3.02154  -7.86259   4.58726 
 H                     9.1394   -4.503     6.08933 
 H                     8.56209  -5.44059   4.68361 
 H                     7.51453  -5.24257   6.12043 
 H                     5.87462   8.03186   1.71355 
 H                     5.04394   7.20548   3.0646 
 H                     4.6714    8.9126    2.69573 
 O                    -3.94094   7.31995  -1.77045 
 H                    -4.64982   5.02582  -0.45293 
 H                    -1.75284   8.20742  -0.82396 
 O                    -0.20844   7.3915    1.03864 
 H                    -1.23224   5.10961   2.13639 
 H                     4.58649   0.34248  -1.81696 
 O                     6.77145  -0.81102  -2.97529 
 H                     8.30253   1.00547  -3.9081 
 O                     8.14071   3.54518  -3.95839 
 H                     5.81284   4.34318  -2.76743 
 O                     5.4199   -5.48114  -2.04215 
 H                     5.31212  -4.02339   0.0116 
 H                     2.94665  -6.46219  -2.62428 
 O                     0.6324   -5.99806  -1.27046 
 H                     1.06558  -4.47962   0.69636 
 H                    -5.11968  -0.83947  -1.93697 
 O                    -7.31328  -0.55096  -3.13564 
 H                    -8.52947  -2.9635   -3.46392 
 O                    -7.59585  -5.39515  -2.67432 
 H                    -5.34868  -5.14623  -1.56867 
 C                     7.97656   4.95281  -3.93101 
 C                     5.4019   -6.31031  -3.19241 
 C                    -8.8404   -5.46167  -3.34692 
 C                    -5.16715   6.76986  -2.22178 
 H                     8.86375   5.36646  -4.4149 
 H                     7.91259   5.33431  -2.90329 
 H                     7.08262   5.26863  -4.48542 
 H                     6.42966  -6.33436  -3.55936 
 H                     4.74811  -5.90365  -3.97547 
 H                     5.08107  -7.33206  -2.94926 
 H                    -9.11335  -6.5187   -3.368 
 H                    -8.76654  -5.08739  -4.37704 
 H                    -9.62053  -4.89907  -2.81604 
 H                    -5.51917   7.43465  -3.01326 
 H                    -5.91535   6.73349  -1.41891 
 H                    -5.03229   5.75987  -2.63142 
 C                     0.46908  -6.8848   -2.36573 
 H                    -0.58963  -7.14929  -2.37842 
 H                     1.06957  -7.79545  -2.24023 
 H                     0.73353  -6.40475  -3.3171 
 C                     5.86601  -1.74883  -2.41052 
 H                     6.29434  -2.73653  -2.58886 
 H                     4.87769  -1.69253  -2.88502 
 H                     5.75074  -1.59763  -1.32958 
 C                     0.48497   6.96991   2.20724 
 H                     1.34493   7.63416   2.29848 
 H                     0.84631   5.93886   2.11352 
 H                    -0.1541    7.05327   3.09621 
 C                    -8.57212  -0.46296  -3.77844 
 H                    -8.72992   0.59772  -3.9838 
 H                    -9.38385  -0.83057  -3.13587 
 H                    -8.58476  -1.01915  -4.72567 
 
 NAtoms=    177 NQM=    177 NQMF=      0 NMic=      0 NMicF=      0 NTot=    177.
                    Isotopes and Nuclear Properties:
 (Nuclear quadrupole moments (NQMom) in fm**2, nuclear magnetic moments (NMagM)
  in nuclear magnetons)

  Atom         1           2           3           4           5           6           7           8           9          10
 IAtWgt=          12          12          12          12          12          12          12          12          12          12
 AtmWgt=  12.0000000  12.0000000  12.0000000  12.0000000  12.0000000  12.0000000  12.0000000  12.0000000  12.0000000  12.0000000
 NucSpn=           0           0           0           0           0           0           0           0           0           0
 AtZEff=   0.0000000   0.0000000   0.0000000   0.0000000   0.0000000   0.0000000   0.0000000   0.0000000   0.0000000   0.0000000
 NQMom=    0.0000000   0.0000000   0.0000000   0.0000000   0.0000000   0.0000000   0.0000000   0.0000000   0.0000000   0.0000000
 NMagM=    0.0000000   0.0000000   0.0000000   0.0000000   0.0000000   0.0000000   0.0000000   0.0000000   0.0000000   0.0000000

  Atom        11          12          13          14          15          16          17          18          19          20
 IAtWgt=          12          12          12          12          12          12          12          12          12          12
 AtmWgt=  12.0000000  12.0000000  12.0000000  12.0000000  12.0000000  12.0000000  12.0000000  12.0000000  12.0000000  12.0000000
 NucSpn=           0           0           0           0           0           0           0           0           0           0
 AtZEff=   0.0000000   0.0000000   0.0000000   0.0000000   0.0000000   0.0000000   0.0000000   0.0000000   0.0000000   0.0000000
 NQMom=    0.0000000   0.0000000   0.0000000   0.0000000   0.0000000   0.0000000   0.0000000   0.0000000   0.0000000   0.0000000
 NMagM=    0.0000000   0.0000000   0.0000000   0.0000000   0.0000000   0.0000000   0.0000000   0.0000000   0.0000000   0.0000000

  Atom        21          22          23          24          25          26          27          28          29          30
 IAtWgt=          12          12          12          12          12          14          14          14          14          12
 AtmWgt=  12.0000000  12.0000000  12.0000000  12.0000000  12.0000000  14.0030740  14.0030740  14.0030740  14.0030740  12.0000000
 NucSpn=           0           0           0           0           0           2           2           2           2           0
 AtZEff=   0.0000000   0.0000000   0.0000000   0.0000000   0.0000000   0.0000000   0.0000000   0.0000000   0.0000000   0.0000000
 NQMom=    0.0000000   0.0000000   0.0000000   0.0000000   0.0000000   2.0440000   2.0440000   2.0440000   2.0440000   0.0000000
 NMagM=    0.0000000   0.0000000   0.0000000   0.0000000   0.0000000   0.4037610   0.4037610   0.4037610   0.4037610   0.0000000

  Atom        31          32          33          34          35          36          37          38          39          40
 IAtWgt=          12          12          12          12          12          12          12          12          12          12
 AtmWgt=  12.0000000  12.0000000  12.0000000  12.0000000  12.0000000  12.0000000  12.0000000  12.0000000  12.0000000  12.0000000
 NucSpn=           0           0           0           0           0           0           0           0           0           0
 AtZEff=   0.0000000   0.0000000   0.0000000   0.0000000   0.0000000   0.0000000   0.0000000   0.0000000   0.0000000   0.0000000
 NQMom=    0.0000000   0.0000000   0.0000000   0.0000000   0.0000000   0.0000000   0.0000000   0.0000000   0.0000000   0.0000000
 NMagM=    0.0000000   0.0000000   0.0000000   0.0000000   0.0000000   0.0000000   0.0000000   0.0000000   0.0000000   0.0000000

  Atom        41          42          43          44          45          46          47          48          49          50
 IAtWgt=          12          12          12          12          12          12          12          12          12          12
 AtmWgt=  12.0000000  12.0000000  12.0000000  12.0000000  12.0000000  12.0000000  12.0000000  12.0000000  12.0000000  12.0000000
 NucSpn=           0           0           0           0           0           0           0           0           0           0
 AtZEff=   0.0000000   0.0000000   0.0000000   0.0000000   0.0000000   0.0000000   0.0000000   0.0000000   0.0000000   0.0000000
 NQMom=    0.0000000   0.0000000   0.0000000   0.0000000   0.0000000   0.0000000   0.0000000   0.0000000   0.0000000   0.0000000
 NMagM=    0.0000000   0.0000000   0.0000000   0.0000000   0.0000000   0.0000000   0.0000000   0.0000000   0.0000000   0.0000000

  Atom        51          52          53          54          55          56          57          58          59          60
 IAtWgt=          12          12          12          12          12          12          12          12          12          12
 AtmWgt=  12.0000000  12.0000000  12.0000000  12.0000000  12.0000000  12.0000000  12.0000000  12.0000000  12.0000000  12.0000000
 NucSpn=           0           0           0           0           0           0           0           0           0           0
 AtZEff=   0.0000000   0.0000000   0.0000000   0.0000000   0.0000000   0.0000000   0.0000000   0.0000000   0.0000000   0.0000000
 NQMom=    0.0000000   0.0000000   0.0000000   0.0000000   0.0000000   0.0000000   0.0000000   0.0000000   0.0000000   0.0000000
 NMagM=    0.0000000   0.0000000   0.0000000   0.0000000   0.0000000   0.0000000   0.0000000   0.0000000   0.0000000   0.0000000

  Atom        61          62          63          64          65          66          67          68          69          70
 IAtWgt=          12          12          12          12          12          12          12          12          12          12
 AtmWgt=  12.0000000  12.0000000  12.0000000  12.0000000  12.0000000  12.0000000  12.0000000  12.0000000  12.0000000  12.0000000
 NucSpn=           0           0           0           0           0           0           0           0           0           0
 AtZEff=   0.0000000   0.0000000   0.0000000   0.0000000   0.0000000   0.0000000   0.0000000   0.0000000   0.0000000   0.0000000
 NQMom=    0.0000000   0.0000000   0.0000000   0.0000000   0.0000000   0.0000000   0.0000000   0.0000000   0.0000000   0.0000000
 NMagM=    0.0000000   0.0000000   0.0000000   0.0000000   0.0000000   0.0000000   0.0000000   0.0000000   0.0000000   0.0000000

  Atom        71          72          73          74          75          76          77          78          79          80
 IAtWgt=          12          12          12          12          12          12          12           1           1           1
 AtmWgt=  12.0000000  12.0000000  12.0000000  12.0000000  12.0000000  12.0000000  12.0000000   1.0078250   1.0078250   1.0078250
 NucSpn=           0           0           0           0           0           0           0           1           1           1
 AtZEff=   0.0000000   0.0000000   0.0000000   0.0000000   0.0000000   0.0000000   0.0000000   0.0000000   0.0000000   0.0000000
 NQMom=    0.0000000   0.0000000   0.0000000   0.0000000   0.0000000   0.0000000   0.0000000   0.0000000   0.0000000   0.0000000
 NMagM=    0.0000000   0.0000000   0.0000000   0.0000000   0.0000000   0.0000000   0.0000000   2.7928460   2.7928460   2.7928460

  Atom        81          82          83          84          85          86          87          88          89          90
 IAtWgt=           1           1           1           1           1           1           1           1           1          16
 AtmWgt=   1.0078250   1.0078250   1.0078250   1.0078250   1.0078250   1.0078250   1.0078250   1.0078250   1.0078250  15.9949146
 NucSpn=           1           1           1           1           1           1           1           1           1           0
 AtZEff=   0.0000000   0.0000000   0.0000000   0.0000000   0.0000000   0.0000000   0.0000000   0.0000000   0.0000000   0.0000000
 NQMom=    0.0000000   0.0000000   0.0000000   0.0000000   0.0000000   0.0000000   0.0000000   0.0000000   0.0000000   0.0000000
 NMagM=    2.7928460   2.7928460   2.7928460   2.7928460   2.7928460   2.7928460   2.7928460   2.7928460   2.7928460   0.0000000

  Atom        91          92          93          94          95          96          97          98          99         100
 IAtWgt=          12          16          12          16          16          12          12           1           1           1
 AtmWgt=  12.0000000  15.9949146  12.0000000  15.9949146  15.9949146  12.0000000  12.0000000   1.0078250   1.0078250   1.0078250
 NucSpn=           0           0           0           0           0           0           0           1           1           1
 AtZEff=   0.0000000   0.0000000   0.0000000   0.0000000   0.0000000   0.0000000   0.0000000   0.0000000   0.0000000   0.0000000
 NQMom=    0.0000000   0.0000000   0.0000000   0.0000000   0.0000000   0.0000000   0.0000000   0.0000000   0.0000000   0.0000000
 NMagM=    0.0000000   0.0000000   0.0000000   0.0000000   0.0000000   0.0000000   0.0000000   2.7928460   2.7928460   2.7928460

  Atom       101         102         103         104         105         106         107         108         109         110
 IAtWgt=           1           1           1           1           1           1           1           1           1           1
 AtmWgt=   1.0078250   1.0078250   1.0078250   1.0078250   1.0078250   1.0078250   1.0078250   1.0078250   1.0078250   1.0078250
 NucSpn=           1           1           1           1           1           1           1           1           1           1
 AtZEff=   0.0000000   0.0000000   0.0000000   0.0000000   0.0000000   0.0000000   0.0000000   0.0000000   0.0000000   0.0000000
 NQMom=    0.0000000   0.0000000   0.0000000   0.0000000   0.0000000   0.0000000   0.0000000   0.0000000   0.0000000   0.0000000
 NMagM=    2.7928460   2.7928460   2.7928460   2.7928460   2.7928460   2.7928460   2.7928460   2.7928460   2.7928460   2.7928460

  Atom       111         112         113         114         115         116         117         118         119         120
 IAtWgt=           1           1           1           1           1           1           1           1           1           1
 AtmWgt=   1.0078250   1.0078250   1.0078250   1.0078250   1.0078250   1.0078250   1.0078250   1.0078250   1.0078250   1.0078250
 NucSpn=           1           1           1           1           1           1           1           1           1           1
 AtZEff=   0.0000000   0.0000000   0.0000000   0.0000000   0.0000000   0.0000000   0.0000000   0.0000000   0.0000000   0.0000000
 NQMom=    0.0000000   0.0000000   0.0000000   0.0000000   0.0000000   0.0000000   0.0000000   0.0000000   0.0000000   0.0000000
 NMagM=    2.7928460   2.7928460   2.7928460   2.7928460   2.7928460   2.7928460   2.7928460   2.7928460   2.7928460   2.7928460

  Atom       121         122         123         124         125         126         127         128         129         130
 IAtWgt=           1           1           1           1           1          16           1           1          16           1
 AtmWgt=   1.0078250   1.0078250   1.0078250   1.0078250   1.0078250  15.9949146   1.0078250   1.0078250  15.9949146   1.0078250
 NucSpn=           1           1           1           1           1           0           1           1           0           1
 AtZEff=   0.0000000   0.0000000   0.0000000   0.0000000   0.0000000   0.0000000   0.0000000   0.0000000   0.0000000   0.0000000
 NQMom=    0.0000000   0.0000000   0.0000000   0.0000000   0.0000000   0.0000000   0.0000000   0.0000000   0.0000000   0.0000000
 NMagM=    2.7928460   2.7928460   2.7928460   2.7928460   2.7928460   0.0000000   2.7928460   2.7928460   0.0000000   2.7928460

  Atom       131         132         133         134         135         136         137         138         139         140
 IAtWgt=           1          16           1          16           1          16           1           1          16           1
 AtmWgt=   1.0078250  15.9949146   1.0078250  15.9949146   1.0078250  15.9949146   1.0078250   1.0078250  15.9949146   1.0078250
 NucSpn=           1           0           1           0           1           0           1           1           0           1
 AtZEff=   0.0000000   0.0000000   0.0000000   0.0000000   0.0000000   0.0000000   0.0000000   0.0000000   0.0000000   0.0000000
 NQMom=    0.0000000   0.0000000   0.0000000   0.0000000   0.0000000   0.0000000   0.0000000   0.0000000   0.0000000   0.0000000
 NMagM=    2.7928460   0.0000000   2.7928460   0.0000000   2.7928460   0.0000000   2.7928460   2.7928460   0.0000000   2.7928460

  Atom       141         142         143         144         145         146         147         148         149         150
 IAtWgt=           1          16           1          16           1          12          12          12          12           1
 AtmWgt=   1.0078250  15.9949146   1.0078250  15.9949146   1.0078250  12.0000000  12.0000000  12.0000000  12.0000000   1.0078250
 NucSpn=           1           0           1           0           1           0           0           0           0           1
 AtZEff=   0.0000000   0.0000000   0.0000000   0.0000000   0.0000000   0.0000000   0.0000000   0.0000000   0.0000000   0.0000000
 NQMom=    0.0000000   0.0000000   0.0000000   0.0000000   0.0000000   0.0000000   0.0000000   0.0000000   0.0000000   0.0000000
 NMagM=    2.7928460   0.0000000   2.7928460   0.0000000   2.7928460   0.0000000   0.0000000   0.0000000   0.0000000   2.7928460

  Atom       151         152         153         154         155         156         157         158         159         160
 IAtWgt=           1           1           1           1           1           1           1           1           1           1
 AtmWgt=   1.0078250   1.0078250   1.0078250   1.0078250   1.0078250   1.0078250   1.0078250   1.0078250   1.0078250   1.0078250
 NucSpn=           1           1           1           1           1           1           1           1           1           1
 AtZEff=   0.0000000   0.0000000   0.0000000   0.0000000   0.0000000   0.0000000   0.0000000   0.0000000   0.0000000   0.0000000
 NQMom=    0.0000000   0.0000000   0.0000000   0.0000000   0.0000000   0.0000000   0.0000000   0.0000000   0.0000000   0.0000000
 NMagM=    2.7928460   2.7928460   2.7928460   2.7928460   2.7928460   2.7928460   2.7928460   2.7928460   2.7928460   2.7928460

  Atom       161         162         163         164         165         166         167         168         169         170
 IAtWgt=           1          12           1           1           1          12           1           1           1          12
 AtmWgt=   1.0078250  12.0000000   1.0078250   1.0078250   1.0078250  12.0000000   1.0078250   1.0078250   1.0078250  12.0000000
 NucSpn=           1           0           1           1           1           0           1           1           1           0
 AtZEff=   0.0000000   0.0000000   0.0000000   0.0000000   0.0000000   0.0000000   0.0000000   0.0000000   0.0000000   0.0000000
 NQMom=    0.0000000   0.0000000   0.0000000   0.0000000   0.0000000   0.0000000   0.0000000   0.0000000   0.0000000   0.0000000
 NMagM=    2.7928460   0.0000000   2.7928460   2.7928460   2.7928460   0.0000000   2.7928460   2.7928460   2.7928460   0.0000000

  Atom       171         172         173         174         175         176         177
 IAtWgt=           1           1           1          12           1           1           1
 AtmWgt=   1.0078250   1.0078250   1.0078250  12.0000000   1.0078250   1.0078250   1.0078250
 NucSpn=           1           1           1           0           1           1           1
 AtZEff=   0.0000000   0.0000000   0.0000000   0.0000000   0.0000000   0.0000000   0.0000000
 NQMom=    0.0000000   0.0000000   0.0000000   0.0000000   0.0000000   0.0000000   0.0000000
 NMagM=    2.7928460   2.7928460   2.7928460   0.0000000   2.7928460   2.7928460   2.7928460
 Leave Link  101 at Mon Feb  2 23:30:23 2015, MaxMem= 2147483648 cpu:       3.7
 (Enter /opt/g09/l202.exe)
 Stoichiometry    C85H76N4O12
 Framework group  C1[X(C85H76N4O12)]
 Deg. of freedom   525
 Full point group                 C1      NOp   1
 Largest Abelian subgroup         C1      NOp   1
 Largest concise Abelian subgroup C1      NOp   1
                         Standard orientation:                         
 ---------------------------------------------------------------------
 Center     Atomic      Atomic             Coordinates (Angstroms)
 Number     Number       Type             X           Y           Z
 ---------------------------------------------------------------------
      1          6           0       -0.059352    0.221691    0.141608
      2          6           0       -0.847829    1.120118    1.104247
      3          6           0       -0.631856    0.719130    2.438920
      4          6           0        0.362018   -0.356917    2.452526
      5          6           0        0.724379   -0.654543    1.124824
      6          6           0       -1.005466   -0.587244   -0.762209
      7          6           0       -0.731401   -0.330294   -2.117810
      8          6           0        0.410540    0.580811   -2.202810
      9          6           0        0.819124    0.926423   -0.898047
     10          6           0       -2.021671   -1.451600   -0.385547
     11          6           0       -2.787451   -2.087106   -1.380810
     12          6           0       -2.514760   -1.826159   -2.737458
     13          6           0       -1.498856   -0.949310   -3.107878
     14          6           0        0.963335   -1.055782    3.501856
     15          6           0        1.913562   -2.034273    3.219102
     16          6           0        2.289783   -2.319182    1.892113
     17          6           0        1.679708   -1.614601    0.835952
     18          6           0       -1.747561    2.130620    0.799560
     19          6           0       -2.467323    2.744752    1.840040
     20          6           0       -2.261841    2.335344    3.168525
     21          6           0       -1.345349    1.330233    3.473449
     22          6           0        1.123024    1.054852   -3.306788
     23          6           0        2.252667    1.841035   -3.099030
     24          6           0        2.683509    2.160021   -1.799041
     25          6           0        1.942203    1.715718   -0.688466
     26          7           0       -3.809234   -3.004052   -1.014873
     27          7           0        3.290727   -3.288180    1.627293
     28          7           0       -3.419256    3.764871    1.541965
     29          7           0        3.897028    2.886058   -1.624842
     30          6           0        5.082277    2.392055   -2.231559
     31          6           0       -2.981515    4.953188    0.901191
     32          6           0        3.910764    4.069868   -0.840859
     33          6           0       -4.776270    3.583871    1.915164
     34          6           0       -3.532402   -3.972306   -0.002705
     35          6           0       -5.064004   -2.994914   -1.669245
     36          6           0        4.431193   -3.373654    2.480235
     37          6           0        3.199005   -4.135794    0.494509
     38          6           0        4.858213   -4.608311    2.978539
     39          6           0        5.981551   -4.704138    3.802651
     40          6           0        6.683825   -3.547660    4.160332
     41          6           0        6.254508   -2.303960    3.673293
     42          6           0        5.150624   -2.220069    2.836612
     43          6           0       -4.422052   -4.178174    1.055985
     44          6           0       -4.161565   -5.133840    2.040883
     45          6           0       -2.982082   -5.885187    1.987902
     46          6           0       -2.078422   -5.674885    0.935800
     47          6           0       -2.354614   -4.737350   -0.049872
     48          6           0       -5.758925   -4.194513   -1.882604
     49          6           0       -7.001876   -4.172081   -2.516811
     50          6           0       -7.570269   -2.972193   -2.967025
     51          6           0       -6.858564   -1.783283   -2.752369
     52          6           0       -5.624112   -1.783577   -2.101743
     53          6           0        4.345360   -4.432613   -0.255403
     54          6           0        4.246861   -5.269623   -1.368334
     55          6           0        3.017786   -5.819905   -1.758536
     56          6           0        1.882563   -5.510587   -0.995684
     57          6           0        1.963252   -4.683792    0.125167
     58          6           0       -1.787295    5.554457    1.321709
     59          6           0       -1.349784    6.724235    0.689877
     60          6           0       -2.091618    7.295933   -0.345532
     61          6           0       -3.284298    6.690291   -0.749777
     62          6           0       -3.737803    5.515626   -0.138404
     63          6           0       -5.376736    2.320806    1.840560
     64          6           0       -6.703851    2.125792    2.230552
     65          6           0       -7.466116    3.206671    2.683547
     66          6           0       -6.876368    4.477101    2.752254
     67          6           0       -5.550800    4.661423    2.385780
     68          6           0        2.857419    4.997461   -0.929648
     69          6           0        2.864671    6.159876   -0.170307
     70          6           0        3.935660    6.435424    0.691770
     71          6           0        4.991252    5.522785    0.788384
     72          6           0        4.967232    4.346976    0.035624
     73          6           0        5.307983    1.007785   -2.270729
     74          6           0        6.465365    0.516936   -2.886766
     75          6           0        7.403577    1.390669   -3.441435
     76          6           0        7.172646    2.767077   -3.385153
     77          6           0        6.012618    3.280456   -2.793198
     78          1           0        2.282495    1.956904    0.314406
     79          1           0       -1.926037    2.438258   -0.226730
     80          1           0       -2.831075    2.817013    3.957981
     81          1           0       -1.193604    1.030084    4.507214
     82          1           0        0.694544   -0.850736    4.535080
     83          1           0        2.379618   -2.586257    4.028618
     84          1           0        0.814011    0.805110   -4.318583
     85          1           0        2.832404    2.201782   -3.942961
     86          1           0       -1.299919   -0.769080   -4.161350
     87          1           0       -3.107082   -2.323802   -3.498286
     88          1           0        1.967153   -1.822051   -0.189571
     89          1           0       -2.232334   -1.646945    0.661384
     90          8           0        3.854229    7.611117    1.394722
     91          6           0        4.925908    7.944358    2.260151
     92          8           0       -8.775707    3.132608    3.079137
     93          6           0       -9.413565    1.869348    3.025897
     94          8           0        7.786419   -3.521822    4.967312
     95          8           0       -2.623913   -6.839345    2.900083
     96          6           0       -3.495094   -7.079848    3.991334
     97          6           0        8.264526   -4.751613    5.485594
     98          1           0        6.813650   -1.416215    3.952059
     99          1           0        4.833331   -1.254741    2.454448
    100          1           0       -5.334227   -3.591665    1.107238
    101          1           0       -4.876565   -5.270334    2.844192
    102          1           0        6.286390   -5.678778    4.166365
    103          1           0        4.309243   -5.506914    2.714377
    104          1           0       -1.168550   -6.264590    0.892405
    105          1           0       -1.646087   -4.594143   -0.859214
    106          1           0        5.785549    3.639870    0.125719
    107          1           0        5.828662    5.702076    1.453469
    108          1           0        2.046264    6.869686   -0.237665
    109          1           0        2.028209    4.802096   -1.602312
    110          1           0       -7.129012    1.131003    2.159104
    111          1           0       -4.801259    1.476287    1.475142
    112          1           0       -7.474106    5.308130    3.114404
    113          1           0       -5.104592    5.647759    2.460387
    114          1           0       -8.916745    1.135802    3.675796
    115          1           0       -9.445893    1.473314    2.001553
    116          1           0      -10.433374    2.031317    3.381047
    117          1           0       -4.481000   -7.428634    3.654599
    118          1           0       -3.625678   -6.182490    4.611324
    119          1           0       -3.021540   -7.862585    4.587258
    120          1           0        9.139402   -4.503005    6.089328
    121          1           0        8.562095   -5.440590    4.683612
    122          1           0        7.514530   -5.242572    6.120427
    123          1           0        5.874615    8.031858    1.713552
    124          1           0        5.043938    7.205482    3.064598
    125          1           0        4.671404    8.912597    2.695732
    126          8           0       -3.940942    7.319946   -1.770452
    127          1           0       -4.649820    5.025820   -0.452928
    128          1           0       -1.752842    8.207417   -0.823955
    129          8           0       -0.208440    7.391497    1.038636
    130          1           0       -1.232244    5.109615    2.136387
    131          1           0        4.586488    0.342476   -1.816955
    132          8           0        6.771448   -0.811023   -2.975288
    133          1           0        8.302532    1.005470   -3.908095
    134          8           0        8.140707    3.545181   -3.958387
    135          1           0        5.812838    4.343177   -2.767425
    136          8           0        5.419903   -5.481138   -2.042153
    137          1           0        5.312125   -4.023386    0.011601
    138          1           0        2.946653   -6.462189   -2.624280
    139          8           0        0.632401   -5.998060   -1.270461
    140          1           0        1.065583   -4.479617    0.696364
    141          1           0       -5.119681   -0.839469   -1.936971
    142          8           0       -7.313281   -0.550957   -3.135643
    143          1           0       -8.529466   -2.963499   -3.463921
    144          8           0       -7.595850   -5.395150   -2.674323
    145          1           0       -5.348683   -5.146229   -1.568668
    146          6           0        7.976557    4.952814   -3.931012
    147          6           0        5.401898   -6.310310   -3.192413
    148          6           0       -8.840403   -5.461668   -3.346915
    149          6           0       -5.167153    6.769857   -2.221782
    150          1           0        8.863752    5.366457   -4.414900
    151          1           0        7.912594    5.334305   -2.903288
    152          1           0        7.082618    5.268629   -4.485423
    153          1           0        6.429662   -6.334359   -3.559358
    154          1           0        4.748110   -5.903652   -3.975473
    155          1           0        5.081069   -7.332056   -2.949258
    156          1           0       -9.113351   -6.518696   -3.367996
    157          1           0       -8.766539   -5.087386   -4.377041
    158          1           0       -9.620529   -4.899069   -2.816042
    159          1           0       -5.519168    7.434650   -3.013261
    160          1           0       -5.915351    6.733487   -1.418914
    161          1           0       -5.032291    5.759874   -2.631416
    162          6           0        0.469076   -6.884799   -2.365733
    163          1           0       -0.589628   -7.149288   -2.378418
    164          1           0        1.069567   -7.795450   -2.240225
    165          1           0        0.733530   -6.404752   -3.317101
    166          6           0        5.866005   -1.748831   -2.410516
    167          1           0        6.294338   -2.736531   -2.588863
    168          1           0        4.877693   -1.692534   -2.885016
    169          1           0        5.750741   -1.597625   -1.329582
    170          6           0        0.484965    6.969911    2.207241
    171          1           0        1.344931    7.634160    2.298476
    172          1           0        0.846309    5.938859    2.113524
    173          1           0       -0.154095    7.053270    3.096208
    174          6           0       -8.572118   -0.462962   -3.778437
    175          1           0       -8.729922    0.597722   -3.983804
    176          1           0       -9.383854   -0.830566   -3.135868
    177          1           0       -8.584764   -1.019148   -4.725671
 ---------------------------------------------------------------------
 Rotational constants (GHZ):      0.0156142      0.0130242      0.0091346
 Leave Link  202 at Mon Feb  2 23:30:23 2015, MaxMem= 2147483648 cpu:       0.2
 (Enter /opt/g09/l301.exe)
 Standard basis: CC-pVDZ (5D, 7F)
 Ernie: Thresh=  0.10000D-02 Tol=  0.10000D-05 Strict=F.
 Ernie:  202 primitive shells out of 2602 were deleted.
 There are  1794 symmetry adapted basis functions of A   symmetry.
 Integral buffers will be    131072 words long.
 Raffenetti 2 integral format.
 Two-electron integral symmetry is turned on.
  1794 basis functions,  3865 primitive gaussians,  1895 cartesian basis functions
   355 alpha electrons      355 beta electrons
       nuclear repulsion energy     19258.2986518568 Hartrees.
 IExCor=  402 DFT=T Ex+Corr=B3LYP ExCW=0 ScaHFX=  0.200000
 ScaDFX=  0.800000  0.720000  1.000000  0.810000 ScalE2=  1.000000  1.000000
 IRadAn=      0 IRanWt=     -1 IRanGd=            0 ICorTp=0
 NAtoms=  177 NActive=  177 NUniq=  177 SFac= 7.50D-01 NAtFMM=   80 NAOKFM=T Big=T
 Leave Link  301 at Mon Feb  2 23:30:23 2015, MaxMem= 2147483648 cpu:       1.4
 (Enter /opt/g09/l302.exe)
 NPDir=0 NMtPBC=     1 NCelOv=     1 NCel=       1 NClECP=     1 NCelD=      1
         NCelK=      1 NCelE2=     1 NClLst=     1 CellRange=     0.0.
 One-electron integrals computed using PRISM.
 NBasis=  1794 RedAO= T  NBF=  1794
 NBsUse=  1794 1.00D-06 NBFU=  1794
 Precomputing XC quadrature grid using
 IXCGrd= 2 IRadAn=           0 IRanWt=          -1 IRanGd=           0 AccXCQ= 1.00D-10.
 NRdTot=   11600 NPtTot=     1487288 NUsed=     1570802 NTot=     1570834
 NSgBfM=  1347  1352  1356  1359  1359 NAtAll=   177   171.
 Leave Link  302 at Mon Feb  2 23:30:50 2015, MaxMem= 2147483648 cpu:     646.4
 (Enter /opt/g09/l303.exe)
 DipDrv:  MaxL=1.
 Leave Link  303 at Mon Feb  2 23:30:52 2015, MaxMem= 2147483648 cpu:      43.2
 (Enter /opt/g09/l401.exe)
 Harris functional with IExCor=  402 diagonalized for initial guess.
 ExpMin= 1.22D-01 ExpMax= 1.17D+04 ExpMxC= 4.01D+02 IAcc=1 IRadAn=         1 AccDes= 0.00D+00
 HarFok:  IExCor=  402 AccDes= 0.00D+00 IRadAn=         1 IDoV= 1
 ScaDFX=  1.000000  1.000000  1.000000  1.000000
 FoFCou: FMM=F IPFlag=           0 FMFlag=      100000 FMFlg1=        2001
         NFxFlg=           0 DoJE=T BraDBF=F KetDBF=T FulRan=T
         Omega=  0.000000  0.000000  1.000000  0.000000  0.000000 ICntrl=     500 IOpCl=  0
         NMat0=    1 NMatS0=    1 NMatT0=    0 NMatD0=    1 NMtDS0=    0 NMtDT0=    0
         I1Cent=           4 NGrid=           0.
 Petite list used in FoFCou.
 Harris En= -4406.77670267590    
 Initial guess orbital symmetries:
       Occupied  (A) (A) (A) (A) (A) (A) (A) (A) (A) (A) (A) (A)
                 (A) (A) (A) (A) (A) (A) (A) (A) (A) (A) (A) (A)
                 (A) (A) (A) (A) (A) (A) (A) (A) (A) (A) (A) (A)
                 (A) (A) (A) (A) (A) (A) (A) (A) (A) (A) (A) (A)
                 (A) (A) (A) (A) (A) (A) (A) (A) (A) (A) (A) (A)
                 (A) (A) (A) (A) (A) (A) (A) (A) (A) (A) (A) (A)
                 (A) (A) (A) (A) (A) (A) (A) (A) (A) (A) (A) (A)
                 (A) (A) (A) (A) (A) (A) (A) (A) (A) (A) (A) (A)
                 (A) (A) (A) (A) (A) (A) (A) (A) (A) (A) (A) (A)
                 (A) (A) (A) (A) (A) (A) (A) (A) (A) (A) (A) (A)
                 (A) (A) (A) (A) (A) (A) (A) (A) (A) (A) (A) (A)
                 (A) (A) (A) (A) (A) (A) (A) (A) (A) (A) (A) (A)
                 (A) (A) (A) (A) (A) (A) (A) (A) (A) (A) (A) (A)
                 (A) (A) (A) (A) (A) (A) (A) (A) (A) (A) (A) (A)
                 (A) (A) (A) (A) (A) (A) (A) (A) (A) (A) (A) (A)
                 (A) (A) (A) (A) (A) (A) (A) (A) (A) (A) (A) (A)
                 (A) (A) (A) (A) (A) (A) (A) (A) (A) (A) (A) (A)
                 (A) (A) (A) (A) (A) (A) (A) (A) (A) (A) (A) (A)
                 (A) (A) (A) (A) (A) (A) (A) (A) (A) (A) (A) (A)
                 (A) (A) (A) (A) (A) (A) (A) (A) (A) (A) (A) (A)
                 (A) (A) (A) (A) (A) (A) (A) (A) (A) (A) (A) (A)
                 (A) (A) (A) (A) (A) (A) (A) (A) (A) (A) (A) (A)
                 (A) (A) (A) (A) (A) (A) (A) (A) (A) (A) (A) (A)
                 (A) (A) (A) (A) (A) (A) (A) (A) (A) (A) (A) (A)
                 (A) (A) (A) (A) (A) (A) (A) (A) (A) (A) (A) (A)
                 (A) (A) (A) (A) (A) (A) (A) (A) (A) (A) (A) (A)
                 (A) (A) (A) (A) (A) (A) (A) (A) (A) (A) (A) (A)
                 (A) (A) (A) (A) (A) (A) (A) (A) (A) (A) (A) (A)
                 (A) (A) (A) (A) (A) (A) (A) (A) (A) (A) (A) (A)
                 (A) (A) (A) (A) (A) (A) (A)
       Virtual   (A) (A) (A) (A) (A) (A) (A) (A) (A) (A) (A) (A)
                 (A) (A) (A) (A) (A) (A) (A) (A) (A) (A) (A) (A)
                 (A) (A) (A) (A) (A) (A) (A) (A) (A) (A) (A) (A)
                 (A) (A) (A) (A) (A) (A) (A) (A) (A) (A) (A) (A)
                 (A) (A) (A) (A) (A) (A) (A) (A) (A) (A) (A) (A)
                 (A) (A) (A) (A) (A) (A) (A) (A) (A) (A) (A) (A)
                 (A) (A) (A) (A) (A) (A) (A) (A) (A) (A) (A) (A)
                 (A) (A) (A) (A) (A) (A) (A) (A) (A) (A) (A) (A)
                 (A) (A) (A) (A) (A) (A) (A) (A) (A) (A) (A) (A)
                 (A) (A) (A) (A) (A) (A) (A) (A) (A) (A) (A) (A)
                 (A) (A) (A) (A) (A) (A) (A) (A) (A) (A) (A) (A)
                 (A) (A) (A) (A) (A) (A) (A) (A) (A) (A) (A) (A)
                 (A) (A) (A) (A) (A) (A) (A) (A) (A) (A) (A) (A)
                 (A) (A) (A) (A) (A) (A) (A) (A) (A) (A) (A) (A)
                 (A) (A) (A) (A) (A) (A) (A) (A) (A) (A) (A) (A)
                 (A) (A) (A) (A) (A) (A) (A) (A) (A) (A) (A) (A)
                 (A) (A) (A) (A) (A) (A) (A) (A) (A) (A) (A) (A)
                 (A) (A) (A) (A) (A) (A) (A) (A) (A) (A) (A) (A)
                 (A) (A) (A) (A) (A) (A) (A) (A) (A) (A) (A) (A)
                 (A) (A) (A) (A) (A) (A) (A) (A) (A) (A) (A) (A)
                 (A) (A) (A) (A) (A) (A) (A) (A) (A) (A) (A) (A)
                 (A) (A) (A) (A) (A) (A) (A) (A) (A) (A) (A) (A)
                 (A) (A) (A) (A) (A) (A) (A) (A) (A) (A) (A) (A)
                 (A) (A) (A) (A) (A) (A) (A) (A) (A) (A) (A) (A)
                 (A) (A) (A) (A) (A) (A) (A) (A) (A) (A) (A) (A)
                 (A) (A) (A) (A) (A) (A) (A) (A) (A) (A) (A) (A)
                 (A) (A) (A) (A) (A) (A) (A) (A) (A) (A) (A) (A)
                 (A) (A) (A) (A) (A) (A) (A) (A) (A) (A) (A) (A)
                 (A) (A) (A) (A) (A) (A) (A) (A) (A) (A) (A) (A)
                 (A) (A) (A) (A) (A) (A) (A) (A) (A) (A) (A) (A)
                 (A) (A) (A) (A) (A) (A) (A) (A) (A) (A) (A) (A)
                 (A) (A) (A) (A) (A) (A) (A) (A) (A) (A) (A) (A)
                 (A) (A) (A) (A) (A) (A) (A) (A) (A) (A) (A) (A)
                 (A) (A) (A) (A) (A) (A) (A) (A) (A) (A) (A) (A)
                 (A) (A) (A) (A) (A) (A) (A) (A) (A) (A) (A) (A)
                 (A) (A) (A) (A) (A) (A) (A) (A) (A) (A) (A) (A)
                 (A) (A) (A) (A) (A) (A) (A) (A) (A) (A) (A) (A)
                 (A) (A) (A) (A) (A) (A) (A) (A) (A) (A) (A) (A)
                 (A) (A) (A) (A) (A) (A) (A) (A) (A) (A) (A) (A)
                 (A) (A) (A) (A) (A) (A) (A) (A) (A) (A) (A) (A)
                 (A) (A) (A) (A) (A) (A) (A) (A) (A) (A) (A) (A)
                 (A) (A) (A) (A) (A) (A) (A) (A) (A) (A) (A) (A)
                 (A) (A) (A) (A) (A) (A) (A) (A) (A) (A) (A) (A)
                 (A) (A) (A) (A) (A) (A) (A) (A) (A) (A) (A) (A)
                 (A) (A) (A) (A) (A) (A) (A) (A) (A) (A) (A) (A)
                 (A) (A) (A) (A) (A) (A) (A) (A) (A) (A) (A) (A)
                 (A) (A) (A) (A) (A) (A) (A) (A) (A) (A) (A) (A)
                 (A) (A) (A) (A) (A) (A) (A) (A) (A) (A) (A) (A)
                 (A) (A) (A) (A) (A) (A) (A) (A) (A) (A) (A) (A)
                 (A) (A) (A) (A) (A) (A) (A) (A) (A) (A) (A) (A)
                 (A) (A) (A) (A) (A) (A) (A) (A) (A) (A) (A) (A)
                 (A) (A) (A) (A) (A) (A) (A) (A) (A) (A) (A) (A)
                 (A) (A) (A) (A) (A) (A) (A) (A) (A) (A) (A) (A)
                 (A) (A) (A) (A) (A) (A) (A) (A) (A) (A) (A) (A)
                 (A) (A) (A) (A) (A) (A) (A) (A) (A) (A) (A) (A)
                 (A) (A) (A) (A) (A) (A) (A) (A) (A) (A) (A) (A)
                 (A) (A) (A) (A) (A) (A) (A) (A) (A) (A) (A) (A)
                 (A) (A) (A) (A) (A) (A) (A) (A) (A) (A) (A) (A)
                 (A) (A) (A) (A) (A) (A) (A) (A) (A) (A) (A) (A)
                 (A) (A) (A) (A) (A) (A) (A) (A) (A) (A) (A) (A)
                 (A) (A) (A) (A) (A) (A) (A) (A) (A) (A) (A) (A)
                 (A) (A) (A) (A) (A) (A) (A) (A) (A) (A) (A) (A)
                 (A) (A) (A) (A) (A) (A) (A) (A) (A) (A) (A) (A)
                 (A) (A) (A) (A) (A) (A) (A) (A) (A) (A) (A) (A)
                 (A) (A) (A) (A) (A) (A) (A) (A) (A) (A) (A) (A)
                 (A) (A) (A) (A) (A) (A) (A) (A) (A) (A) (A) (A)
                 (A) (A) (A) (A) (A) (A) (A) (A) (A) (A) (A) (A)
                 (A) (A) (A) (A) (A) (A) (A) (A) (A) (A) (A) (A)
                 (A) (A) (A) (A) (A) (A) (A) (A) (A) (A) (A) (A)
                 (A) (A) (A) (A) (A) (A) (A) (A) (A) (A) (A) (A)
                 (A) (A) (A) (A) (A) (A) (A) (A) (A) (A) (A) (A)
                 (A) (A) (A) (A) (A) (A) (A) (A) (A) (A) (A) (A)
                 (A) (A) (A) (A) (A) (A) (A) (A) (A) (A) (A) (A)
                 (A) (A) (A) (A) (A) (A) (A) (A) (A) (A) (A) (A)
                 (A) (A) (A) (A) (A) (A) (A) (A) (A) (A) (A) (A)
                 (A) (A) (A) (A) (A) (A) (A) (A) (A) (A) (A) (A)
                 (A) (A) (A) (A) (A) (A) (A) (A) (A) (A) (A) (A)
                 (A) (A) (A) (A) (A) (A) (A) (A) (A) (A) (A) (A)
                 (A) (A) (A) (A) (A) (A) (A) (A) (A) (A) (A) (A)
                 (A) (A) (A) (A) (A) (A) (A) (A) (A) (A) (A) (A)
                 (A) (A) (A) (A) (A) (A) (A) (A) (A) (A) (A) (A)
                 (A) (A) (A) (A) (A) (A) (A) (A) (A) (A) (A) (A)
                 (A) (A) (A) (A) (A) (A) (A) (A) (A) (A) (A) (A)
                 (A) (A) (A) (A) (A) (A) (A) (A) (A) (A) (A) (A)
                 (A) (A) (A) (A) (A) (A) (A) (A) (A) (A) (A) (A)
                 (A) (A) (A) (A) (A) (A) (A) (A) (A) (A) (A) (A)
                 (A) (A) (A) (A) (A) (A) (A) (A) (A) (A) (A) (A)
                 (A) (A) (A) (A) (A) (A) (A) (A) (A) (A) (A) (A)
                 (A) (A) (A) (A) (A) (A) (A) (A) (A) (A) (A) (A)
                 (A) (A) (A) (A) (A) (A) (A) (A) (A) (A) (A) (A)
                 (A) (A) (A) (A) (A) (A) (A) (A) (A) (A) (A) (A)
                 (A) (A) (A) (A) (A) (A) (A) (A) (A) (A) (A) (A)
                 (A) (A) (A) (A) (A) (A) (A) (A) (A) (A) (A) (A)
                 (A) (A) (A) (A) (A) (A) (A) (A) (A) (A) (A) (A)
                 (A) (A) (A) (A) (A) (A) (A) (A) (A) (A) (A) (A)
                 (A) (A) (A) (A) (A) (A) (A) (A) (A) (A) (A) (A)
                 (A) (A) (A) (A) (A) (A) (A) (A) (A) (A) (A) (A)
                 (A) (A) (A) (A) (A) (A) (A) (A) (A) (A) (A) (A)
                 (A) (A) (A) (A) (A) (A) (A) (A) (A) (A) (A) (A)
                 (A) (A) (A) (A) (A) (A) (A) (A) (A) (A) (A) (A)
                 (A) (A) (A) (A) (A) (A) (A) (A) (A) (A) (A) (A)
                 (A) (A) (A) (A) (A) (A) (A) (A) (A) (A) (A) (A)
                 (A) (A) (A) (A) (A) (A) (A) (A) (A) (A) (A) (A)
                 (A) (A) (A) (A) (A) (A) (A) (A) (A) (A) (A) (A)
                 (A) (A) (A) (A) (A) (A) (A) (A) (A) (A) (A) (A)
                 (A) (A) (A) (A) (A) (A) (A) (A) (A) (A) (A) (A)
                 (A) (A) (A) (A) (A) (A) (A) (A) (A) (A) (A) (A)
                 (A) (A) (A) (A) (A) (A) (A) (A) (A) (A) (A) (A)
                 (A) (A) (A) (A) (A) (A) (A) (A) (A) (A) (A) (A)
                 (A) (A) (A) (A) (A) (A) (A) (A) (A) (A) (A) (A)
                 (A) (A) (A) (A) (A) (A) (A) (A) (A) (A) (A) (A)
                 (A) (A) (A) (A) (A) (A) (A) (A) (A) (A) (A) (A)
                 (A) (A) (A) (A) (A) (A) (A) (A) (A) (A) (A) (A)
                 (A) (A) (A) (A) (A) (A) (A) (A) (A) (A) (A) (A)
                 (A) (A) (A) (A) (A) (A) (A) (A) (A) (A) (A) (A)
                 (A) (A) (A) (A) (A) (A) (A) (A) (A) (A) (A) (A)
                 (A) (A) (A) (A) (A) (A) (A) (A) (A) (A) (A) (A)
                 (A) (A) (A) (A) (A) (A) (A) (A) (A) (A) (A) (A)
                 (A) (A) (A) (A) (A) (A) (A) (A) (A) (A) (A) (A)
                 (A) (A) (A) (A) (A) (A) (A) (A) (A) (A) (A)
 The electronic state of the initial guess is 1-A.
 Leave Link  401 at Mon Feb  2 23:31:18 2015, MaxMem= 2147483648 cpu:     625.1
 (Enter /opt/g09/l502.exe)
 Closed shell SCF:
 Requested convergence on RMS density matrix=1.00D-08 within 128 cycles.
 Requested convergence on MAX density matrix=1.00D-06.
 Requested convergence on             energy=1.00D-06.
 No special actions if energy rises.
 Using DIIS extrapolation, IDIIS=  1040.
 Integral symmetry usage will be decided dynamically.
      1569196 words used for storage of precomputed grid.
 IEnd=    12420249 IEndB=    12420249 NGot=  2147483648 MDV=  2138672960
 LenX=  2138672960 LenY=  2135080040
 Fock matrices will be formed incrementally for  20 cycles.
 Integral accuracy reduced to 1.0D-05 until final iterations.

 Cycle   1  Pass 0  IDiag  1:
 FoFCou: FMM=T IPFlag=           0 FMFlag=      100000 FMFlg1=        2001
         NFxFlg=           0 DoJE=F BraDBF=F KetDBF=F FulRan=T
         Omega=  0.000000  0.000000  1.000000  0.000000  0.000000 ICntrl=       0 IOpCl=  0
         NMat0=    1 NMatS0=    1 NMatT0=    0 NMatD0=    1 NMtDS0=    0 NMtDT0=    0
         I1Cent=           0 NGrid=           0.
 Symmetry not used in FoFCou.
 FMM levels:  10  Number of levels for PrismC:   9
 E= -4404.70264797096    
 DIIS: error= 1.90D-02 at cycle   1 NSaved=   1.
 NSaved= 1 IEnMin= 1 EnMin= -4404.70264797096     IErMin= 1 ErrMin= 1.90D-02
 ErrMax= 1.90D-02 EMaxC= 1.00D-01 BMatC= 1.73D+00 BMatP= 1.73D+00
 IDIUse=3 WtCom= 8.10D-01 WtEn= 1.90D-01
 Coeff-Com:  0.100D+01
 Coeff-En:   0.100D+01
 Coeff:      0.100D+01
 Gap=     0.141 Goal=   None    Shift=    0.000
 GapD=    0.141 DampG=1.000 DampE=0.500 DampFc=0.5000 IDamp=-1.
 Damping current iteration by 5.00D-01
 RMSDP=2.04D-03 MaxDP=1.77D-01              OVMax= 2.26D-01

 Cycle   2  Pass 0  IDiag  1:
 RMSU=  6.88D-04    CP:  9.63D-01
 E= -4405.63358473482     Delta-E=       -0.930936763860 Rises=F Damp=T
 DIIS: error= 3.58D-03 at cycle   2 NSaved=   2.
 NSaved= 2 IEnMin= 2 EnMin= -4405.63358473482     IErMin= 2 ErrMin= 3.58D-03
 ErrMax= 3.58D-03 EMaxC= 1.00D-01 BMatC= 8.53D-02 BMatP= 1.73D+00
 IDIUse=3 WtCom= 9.64D-01 WtEn= 3.58D-02
 Coeff-Com:  0.911D-02 0.991D+00
 Coeff-En:   0.000D+00 0.100D+01
 Coeff:      0.878D-02 0.991D+00
 Gap=     0.129 Goal=   None    Shift=    0.000
 RMSDP=6.00D-04 MaxDP=9.92D-02 DE=-9.31D-01 OVMax= 1.36D-01

 Cycle   3  Pass 0  IDiag  1:
 RMSU=  3.67D-04    CP:  9.41D-01  1.25D+00
 E= -4406.56122032309     Delta-E=       -0.927635588268 Rises=F Damp=F
 DIIS: error= 2.48D-03 at cycle   3 NSaved=   3.
 NSaved= 3 IEnMin= 3 EnMin= -4406.56122032309     IErMin= 3 ErrMin= 2.48D-03
 ErrMax= 2.48D-03 EMaxC= 1.00D-01 BMatC= 7.53D-02 BMatP= 8.53D-02
 IDIUse=3 WtCom= 9.75D-01 WtEn= 2.48D-02
 Coeff-Com: -0.330D-01 0.498D+00 0.535D+00
 Coeff-En:   0.000D+00 0.000D+00 0.100D+01
 Coeff:     -0.322D-01 0.485D+00 0.547D+00
 Gap=     0.139 Goal=   None    Shift=    0.000
 RMSDP=2.60D-04 MaxDP=3.52D-02 DE=-9.28D-01 OVMax= 6.91D-02

 Cycle   4  Pass 0  IDiag  1:
 RMSU=  1.48D-04    CP:  9.43D-01  1.24D+00  7.06D-01
 E= -4406.61146664588     Delta-E=       -0.050246322786 Rises=F Damp=F
 DIIS: error= 1.82D-03 at cycle   4 NSaved=   4.
 NSaved= 4 IEnMin= 4 EnMin= -4406.61146664588     IErMin= 4 ErrMin= 1.82D-03
 ErrMax= 1.82D-03 EMaxC= 1.00D-01 BMatC= 2.20D-02 BMatP= 7.53D-02
 IDIUse=3 WtCom= 9.82D-01 WtEn= 1.82D-02
 Coeff-Com: -0.196D-01 0.158D+00 0.365D+00 0.497D+00
 Coeff-En:   0.000D+00 0.000D+00 0.266D+00 0.734D+00
 Coeff:     -0.193D-01 0.155D+00 0.363D+00 0.502D+00
 Gap=     0.131 Goal=   None    Shift=    0.000
 RMSDP=1.24D-04 MaxDP=1.39D-02 DE=-5.02D-02 OVMax= 3.46D-02

 Cycle   5  Pass 0  IDiag  1:
 RMSU=  4.38D-05    CP:  9.43D-01  1.23D+00  7.73D-01  5.14D-01
 E= -4406.63102714370     Delta-E=       -0.019560497822 Rises=F Damp=F
 DIIS: error= 7.99D-04 at cycle   5 NSaved=   5.
 NSaved= 5 IEnMin= 5 EnMin= -4406.63102714370     IErMin= 5 ErrMin= 7.99D-04
 ErrMax= 7.99D-04 EMaxC= 1.00D-01 BMatC= 2.89D-03 BMatP= 2.20D-02
 IDIUse=3 WtCom= 9.92D-01 WtEn= 7.99D-03
 Coeff-Com: -0.898D-02 0.499D-01 0.186D+00 0.333D+00 0.441D+00
 Coeff-En:   0.000D+00 0.000D+00 0.000D+00 0.109D+00 0.891D+00
 Coeff:     -0.891D-02 0.495D-01 0.184D+00 0.331D+00 0.444D+00
 Gap=     0.131 Goal=   None    Shift=    0.000
 RMSDP=4.20D-05 MaxDP=3.97D-03 DE=-1.96D-02 OVMax= 9.85D-03

 Cycle   6  Pass 0  IDiag  1:
 RMSU=  1.60D-05    CP:  9.42D-01  1.24D+00  7.70D-01  5.85D-01  4.88D-01
 E= -4406.63407168473     Delta-E=       -0.003044541027 Rises=F Damp=F
 DIIS: error= 2.65D-04 at cycle   6 NSaved=   6.
 NSaved= 6 IEnMin= 6 EnMin= -4406.63407168473     IErMin= 6 ErrMin= 2.65D-04
 ErrMax= 2.65D-04 EMaxC= 1.00D-01 BMatC= 2.38D-04 BMatP= 2.89D-03
 IDIUse=3 WtCom= 9.97D-01 WtEn= 2.65D-03
 Coeff-Com: -0.189D-02 0.469D-02 0.523D-01 0.112D+00 0.261D+00 0.572D+00
 Coeff-En:   0.000D+00 0.000D+00 0.000D+00 0.000D+00 0.610D-01 0.939D+00
 Coeff:     -0.188D-02 0.467D-02 0.522D-01 0.112D+00 0.260D+00 0.573D+00
 Gap=     0.131 Goal=   None    Shift=    0.000
 RMSDP=1.30D-05 MaxDP=8.51D-04 DE=-3.04D-03 OVMax= 2.77D-03

 Cycle   7  Pass 0  IDiag  1:
 RMSU=  5.77D-06    CP:  9.42D-01  1.24D+00  7.76D-01  5.80D-01  5.78D-01
                    CP:  6.65D-01
 E= -4406.63432512803     Delta-E=       -0.000253443304 Rises=F Damp=F
 DIIS: error= 1.09D-04 at cycle   7 NSaved=   7.
 NSaved= 7 IEnMin= 7 EnMin= -4406.63432512803     IErMin= 7 ErrMin= 1.09D-04
 ErrMax= 1.09D-04 EMaxC= 1.00D-01 BMatC= 3.67D-05 BMatP= 2.38D-04
 IDIUse=3 WtCom= 9.99D-01 WtEn= 1.09D-03
 Coeff-Com: -0.568D-03-0.637D-03 0.208D-01 0.479D-01 0.136D+00 0.372D+00
 Coeff-Com:  0.424D+00
 Coeff-En:   0.000D+00 0.000D+00 0.000D+00 0.000D+00 0.000D+00 0.266D-01
 Coeff-En:   0.973D+00
 Coeff:     -0.567D-03-0.636D-03 0.208D-01 0.479D-01 0.136D+00 0.372D+00
 Coeff:      0.425D+00
 Gap=     0.131 Goal=   None    Shift=    0.000
 RMSDP=5.34D-06 MaxDP=5.08D-04 DE=-2.53D-04 OVMax= 1.34D-03

 Initial convergence to 1.0D-05 achieved.  Increase integral accuracy.
 Cycle   8  Pass 1  IDiag  1:
 E= -4406.63395363152     Delta-E=        0.000371496510 Rises=F Damp=F
 DIIS: error= 3.55D-04 at cycle   1 NSaved=   1.
 NSaved= 1 IEnMin= 1 EnMin= -4406.63395363152     IErMin= 1 ErrMin= 3.55D-04
 ErrMax= 3.55D-04 EMaxC= 1.00D-01 BMatC= 1.31D-04 BMatP= 1.31D-04
 IDIUse=3 WtCom= 9.96D-01 WtEn= 3.55D-03
 Coeff-Com:  0.100D+01
 Coeff-En:   0.100D+01
 Coeff:      0.100D+01
 Gap=     0.131 Goal=   None    Shift=    0.000
 RMSDP=5.34D-06 MaxDP=5.08D-04 DE= 3.71D-04 OVMax= 1.48D-03

 Cycle   9  Pass 1  IDiag  1:
 RMSU=  1.17D-04    CP:  9.99D-01
 E= -4406.63404918626     Delta-E=       -0.000095554740 Rises=F Damp=F
 DIIS: error= 1.34D-04 at cycle   2 NSaved=   2.
 NSaved= 2 IEnMin= 2 EnMin= -4406.63404918626     IErMin= 2 ErrMin= 1.34D-04
 ErrMax= 1.34D-04 EMaxC= 1.00D-01 BMatC= 2.18D-05 BMatP= 1.31D-04
 IDIUse=3 WtCom= 9.99D-01 WtEn= 1.34D-03
 Coeff-Com:  0.175D+00 0.825D+00
 Coeff-En:   0.000D+00 0.100D+01
 Coeff:      0.175D+00 0.825D+00
 Gap=     0.131 Goal=   None    Shift=    0.000
 RMSDP=9.57D-06 MaxDP=1.56D-03 DE=-9.56D-05 OVMax= 2.91D-03

 Cycle  10  Pass 1  IDiag  1:
 RMSU=  6.73D-06    CP:  9.99D-01  1.01D+00
 E= -4406.63397735303     Delta-E=        0.000071833227 Rises=F Damp=F
 DIIS: error= 2.67D-04 at cycle   3 NSaved=   3.
 NSaved= 3 IEnMin= 2 EnMin= -4406.63404918626     IErMin= 2 ErrMin= 1.34D-04
 ErrMax= 2.67D-04 EMaxC= 1.00D-01 BMatC= 8.51D-05 BMatP= 2.18D-05
 IDIUse=3 WtCom= 3.80D-01 WtEn= 6.20D-01
 Coeff-Com: -0.373D-02 0.667D+00 0.337D+00
 Coeff-En:   0.000D+00 0.728D+00 0.272D+00
 Coeff:     -0.142D-02 0.705D+00 0.297D+00
 Gap=     0.131 Goal=   None    Shift=    0.000
 RMSDP=5.40D-06 MaxDP=7.78D-04 DE= 7.18D-05 OVMax= 1.64D-03

 Cycle  11  Pass 1  IDiag  1:
 RMSU=  4.58D-07    CP:  9.99D-01  1.01D+00  4.39D-01
 E= -4406.63407142415     Delta-E=       -0.000094071111 Rises=F Damp=F
 DIIS: error= 3.85D-05 at cycle   4 NSaved=   4.
 NSaved= 4 IEnMin= 4 EnMin= -4406.63407142415     IErMin= 4 ErrMin= 3.85D-05
 ErrMax= 3.85D-05 EMaxC= 1.00D-01 BMatC= 2.10D-06 BMatP= 2.18D-05
 IDIUse=1 WtCom= 1.00D+00 WtEn= 0.00D+00
 Coeff-Com: -0.374D-02 0.429D+00 0.155D+00 0.420D+00
 Coeff:     -0.374D-02 0.429D+00 0.155D+00 0.420D+00
 Gap=     0.131 Goal=   None    Shift=    0.000
 RMSDP=9.97D-07 MaxDP=1.48D-04 DE=-9.41D-05 OVMax= 2.76D-04

 Cycle  12  Pass 1  IDiag  1:
 RMSU=  1.77D-07    CP:  9.99D-01  1.01D+00  3.40D-01  6.79D-01
 E= -4406.63407374500     Delta-E=       -0.000002320852 Rises=F Damp=F
 DIIS: error= 1.67D-06 at cycle   5 NSaved=   5.
 NSaved= 5 IEnMin= 5 EnMin= -4406.63407374500     IErMin= 5 ErrMin= 1.67D-06
 ErrMax= 1.67D-06 EMaxC= 1.00D-01 BMatC= 1.05D-08 BMatP= 2.10D-06
 IDIUse=1 WtCom= 1.00D+00 WtEn= 0.00D+00
 Coeff-Com: -0.206D-02 0.225D+00 0.771D-01 0.247D+00 0.453D+00
 Coeff:     -0.206D-02 0.225D+00 0.771D-01 0.247D+00 0.453D+00
 Gap=     0.131 Goal=   None    Shift=    0.000
 RMSDP=9.08D-08 MaxDP=7.52D-06 DE=-2.32D-06 OVMax= 2.36D-05

 Cycle  13  Pass 1  IDiag  1:
 RMSU=  5.07D-08    CP:  9.99D-01  1.01D+00  3.40D-01  7.11D-01  7.94D-01
 E= -4406.63407375485     Delta-E=       -0.000000009848 Rises=F Damp=F
 DIIS: error= 5.63D-07 at cycle   6 NSaved=   6.
 NSaved= 6 IEnMin= 6 EnMin= -4406.63407375485     IErMin= 6 ErrMin= 5.63D-07
 ErrMax= 5.63D-07 EMaxC= 1.00D-01 BMatC= 1.92D-09 BMatP= 1.05D-08
 IDIUse=1 WtCom= 1.00D+00 WtEn= 0.00D+00
 Coeff-Com: -0.632D-03 0.656D-01 0.210D-01 0.829D-01 0.306D+00 0.525D+00
 Coeff:     -0.632D-03 0.656D-01 0.210D-01 0.829D-01 0.306D+00 0.525D+00
 Gap=     0.131 Goal=   None    Shift=    0.000
 RMSDP=3.69D-08 MaxDP=4.20D-06 DE=-9.85D-09 OVMax= 1.04D-05

 Cycle  14  Pass 1  IDiag  1:
 RMSU=  1.74D-08    CP:  9.99D-01  1.01D+00  3.40D-01  7.11D-01  8.55D-01
                    CP:  6.84D-01
 E= -4406.63407375643     Delta-E=       -0.000000001583 Rises=F Damp=F
 DIIS: error= 1.46D-07 at cycle   7 NSaved=   7.
 NSaved= 7 IEnMin= 7 EnMin= -4406.63407375643     IErMin= 7 ErrMin= 1.46D-07
 ErrMax= 1.46D-07 EMaxC= 1.00D-01 BMatC= 1.51D-10 BMatP= 1.92D-09
 IDIUse=1 WtCom= 1.00D+00 WtEn= 0.00D+00
 Coeff-Com: -0.686D-04 0.559D-02 0.128D-02 0.109D-01 0.102D+00 0.287D+00
 Coeff-Com:  0.594D+00
 Coeff:     -0.686D-04 0.559D-02 0.128D-02 0.109D-01 0.102D+00 0.287D+00
 Coeff:      0.594D+00
 Gap=     0.131 Goal=   None    Shift=    0.000
 RMSDP=1.04D-08 MaxDP=1.91D-06 DE=-1.58D-09 OVMax= 2.73D-06

 Cycle  15  Pass 1  IDiag  1:
 RMSU=  4.54D-09    CP:  9.99D-01  1.01D+00  3.40D-01  7.13D-01  8.57D-01
                    CP:  7.18D-01  6.96D-01
 E= -4406.63407375711     Delta-E=       -0.000000000680 Rises=F Damp=F
 DIIS: error= 7.46D-08 at cycle   8 NSaved=   8.
 NSaved= 8 IEnMin= 8 EnMin= -4406.63407375711     IErMin= 8 ErrMin= 7.46D-08
 ErrMax= 7.46D-08 EMaxC= 1.00D-01 BMatC= 1.91D-11 BMatP= 1.51D-10
 IDIUse=1 WtCom= 1.00D+00 WtEn= 0.00D+00
 Coeff-Com:  0.219D-04-0.318D-02-0.132D-02-0.186D-02 0.292D-01 0.118D+00
 Coeff-Com:  0.338D+00 0.521D+00
 Coeff:      0.219D-04-0.318D-02-0.132D-02-0.186D-02 0.292D-01 0.118D+00
 Coeff:      0.338D+00 0.521D+00
 Gap=     0.131 Goal=   None    Shift=    0.000
 RMSDP=3.58D-09 MaxDP=3.59D-07 DE=-6.80D-10 OVMax= 9.40D-07

 SCF Done:  E(RB3LYP) =  -4406.63407376     A.U. after   15 cycles
             Convg  =    0.3575D-08             -V/T =  2.0065
 KE= 4.378287850263D+03 PE=-4.877541542947D+04 EE= 2.073219485359D+04
 Leave Link  502 at Mon Feb  2 23:58:00 2015, MaxMem= 2147483648 cpu:   38396.2
 (Enter /opt/g09/l601.exe)
 Copying SCF densities to generalized density rwf, IOpCl= 0 IROHF=0.

 **********************************************************************

            Population analysis using the SCF density.

 **********************************************************************

 Orbital symmetries:
       Occupied  (A) (A) (A) (A) (A) (A) (A) (A) (A) (A) (A) (A)
                 (A) (A) (A) (A) (A) (A) (A) (A) (A) (A) (A) (A)
                 (A) (A) (A) (A) (A) (A) (A) (A) (A) (A) (A) (A)
                 (A) (A) (A) (A) (A) (A) (A) (A) (A) (A) (A) (A)
                 (A) (A) (A) (A) (A) (A) (A) (A) (A) (A) (A) (A)
                 (A) (A) (A) (A) (A) (A) (A) (A) (A) (A) (A) (A)
                 (A) (A) (A) (A) (A) (A) (A) (A) (A) (A) (A) (A)
                 (A) (A) (A) (A) (A) (A) (A) (A) (A) (A) (A) (A)
                 (A) (A) (A) (A) (A) (A) (A) (A) (A) (A) (A) (A)
                 (A) (A) (A) (A) (A) (A) (A) (A) (A) (A) (A) (A)
                 (A) (A) (A) (A) (A) (A) (A) (A) (A) (A) (A) (A)
                 (A) (A) (A) (A) (A) (A) (A) (A) (A) (A) (A) (A)
                 (A) (A) (A) (A) (A) (A) (A) (A) (A) (A) (A) (A)
                 (A) (A) (A) (A) (A) (A) (A) (A) (A) (A) (A) (A)
                 (A) (A) (A) (A) (A) (A) (A) (A) (A) (A) (A) (A)
                 (A) (A) (A) (A) (A) (A) (A) (A) (A) (A) (A) (A)
                 (A) (A) (A) (A) (A) (A) (A) (A) (A) (A) (A) (A)
                 (A) (A) (A) (A) (A) (A) (A) (A) (A) (A) (A) (A)
                 (A) (A) (A) (A) (A) (A) (A) (A) (A) (A) (A) (A)
                 (A) (A) (A) (A) (A) (A) (A) (A) (A) (A) (A) (A)
                 (A) (A) (A) (A) (A) (A) (A) (A) (A) (A) (A) (A)
                 (A) (A) (A) (A) (A) (A) (A) (A) (A) (A) (A) (A)
                 (A) (A) (A) (A) (A) (A) (A) (A) (A) (A) (A) (A)
                 (A) (A) (A) (A) (A) (A) (A) (A) (A) (A) (A) (A)
                 (A) (A) (A) (A) (A) (A) (A) (A) (A) (A) (A) (A)
                 (A) (A) (A) (A) (A) (A) (A) (A) (A) (A) (A) (A)
                 (A) (A) (A) (A) (A) (A) (A) (A) (A) (A) (A) (A)
                 (A) (A) (A) (A) (A) (A) (A) (A) (A) (A) (A) (A)
                 (A) (A) (A) (A) (A) (A) (A) (A) (A) (A) (A) (A)
                 (A) (A) (A) (A) (A) (A) (A)
       Virtual   (A) (A) (A) (A) (A) (A) (A) (A) (A) (A) (A) (A)
                 (A) (A) (A) (A) (A) (A) (A) (A) (A) (A) (A) (A)
                 (A) (A) (A) (A) (A) (A) (A) (A) (A) (A) (A) (A)
                 (A) (A) (A) (A) (A) (A) (A) (A) (A) (A) (A) (A)
                 (A) (A) (A) (A) (A) (A) (A) (A) (A) (A) (A) (A)
                 (A) (A) (A) (A) (A) (A) (A) (A) (A) (A) (A) (A)
                 (A) (A) (A) (A) (A) (A) (A) (A) (A) (A) (A) (A)
                 (A) (A) (A) (A) (A) (A) (A) (A) (A) (A) (A) (A)
                 (A) (A) (A) (A) (A) (A) (A) (A) (A) (A) (A) (A)
                 (A) (A) (A) (A) (A) (A) (A) (A) (A) (A) (A) (A)
                 (A) (A) (A) (A) (A) (A) (A) (A) (A) (A) (A) (A)
                 (A) (A) (A) (A) (A) (A) (A) (A) (A) (A) (A) (A)
                 (A) (A) (A) (A) (A) (A) (A) (A) (A) (A) (A) (A)
                 (A) (A) (A) (A) (A) (A) (A) (A) (A) (A) (A) (A)
                 (A) (A) (A) (A) (A) (A) (A) (A) (A) (A) (A) (A)
                 (A) (A) (A) (A) (A) (A) (A) (A) (A) (A) (A) (A)
                 (A) (A) (A) (A) (A) (A) (A) (A) (A) (A) (A) (A)
                 (A) (A) (A) (A) (A) (A) (A) (A) (A) (A) (A) (A)
                 (A) (A) (A) (A) (A) (A) (A) (A) (A) (A) (A) (A)
                 (A) (A) (A) (A) (A) (A) (A) (A) (A) (A) (A) (A)
                 (A) (A) (A) (A) (A) (A) (A) (A) (A) (A) (A) (A)
                 (A) (A) (A) (A) (A) (A) (A) (A) (A) (A) (A) (A)
                 (A) (A) (A) (A) (A) (A) (A) (A) (A) (A) (A) (A)
                 (A) (A) (A) (A) (A) (A) (A) (A) (A) (A) (A) (A)
                 (A) (A) (A) (A) (A) (A) (A) (A) (A) (A) (A) (A)
                 (A) (A) (A) (A) (A) (A) (A) (A) (A) (A) (A) (A)
                 (A) (A) (A) (A) (A) (A) (A) (A) (A) (A) (A) (A)
                 (A) (A) (A) (A) (A) (A) (A) (A) (A) (A) (A) (A)
                 (A) (A) (A) (A) (A) (A) (A) (A) (A) (A) (A) (A)
                 (A) (A) (A) (A) (A) (A) (A) (A) (A) (A) (A) (A)
                 (A) (A) (A) (A) (A) (A) (A) (A) (A) (A) (A) (A)
                 (A) (A) (A) (A) (A) (A) (A) (A) (A) (A) (A) (A)
                 (A) (A) (A) (A) (A) (A) (A) (A) (A) (A) (A) (A)
                 (A) (A) (A) (A) (A) (A) (A) (A) (A) (A) (A) (A)
                 (A) (A) (A) (A) (A) (A) (A) (A) (A) (A) (A) (A)
                 (A) (A) (A) (A) (A) (A) (A) (A) (A) (A) (A) (A)
                 (A) (A) (A) (A) (A) (A) (A) (A) (A) (A) (A) (A)
                 (A) (A) (A) (A) (A) (A) (A) (A) (A) (A) (A) (A)
                 (A) (A) (A) (A) (A) (A) (A) (A) (A) (A) (A) (A)
                 (A) (A) (A) (A) (A) (A) (A) (A) (A) (A) (A) (A)
                 (A) (A) (A) (A) (A) (A) (A) (A) (A) (A) (A) (A)
                 (A) (A) (A) (A) (A) (A) (A) (A) (A) (A) (A) (A)
                 (A) (A) (A) (A) (A) (A) (A) (A) (A) (A) (A) (A)
                 (A) (A) (A) (A) (A) (A) (A) (A) (A) (A) (A) (A)
                 (A) (A) (A) (A) (A) (A) (A) (A) (A) (A) (A) (A)
                 (A) (A) (A) (A) (A) (A) (A) (A) (A) (A) (A) (A)
                 (A) (A) (A) (A) (A) (A) (A) (A) (A) (A) (A) (A)
                 (A) (A) (A) (A) (A) (A) (A) (A) (A) (A) (A) (A)
                 (A) (A) (A) (A) (A) (A) (A) (A) (A) (A) (A) (A)
                 (A) (A) (A) (A) (A) (A) (A) (A) (A) (A) (A) (A)
                 (A) (A) (A) (A) (A) (A) (A) (A) (A) (A) (A) (A)
                 (A) (A) (A) (A) (A) (A) (A) (A) (A) (A) (A) (A)
                 (A) (A) (A) (A) (A) (A) (A) (A) (A) (A) (A) (A)
                 (A) (A) (A) (A) (A) (A) (A) (A) (A) (A) (A) (A)
                 (A) (A) (A) (A) (A) (A) (A) (A) (A) (A) (A) (A)
                 (A) (A) (A) (A) (A) (A) (A) (A) (A) (A) (A) (A)
                 (A) (A) (A) (A) (A) (A) (A) (A) (A) (A) (A) (A)
                 (A) (A) (A) (A) (A) (A) (A) (A) (A) (A) (A) (A)
                 (A) (A) (A) (A) (A) (A) (A) (A) (A) (A) (A) (A)
                 (A) (A) (A) (A) (A) (A) (A) (A) (A) (A) (A) (A)
                 (A) (A) (A) (A) (A) (A) (A) (A) (A) (A) (A) (A)
                 (A) (A) (A) (A) (A) (A) (A) (A) (A) (A) (A) (A)
                 (A) (A) (A) (A) (A) (A) (A) (A) (A) (A) (A) (A)
                 (A) (A) (A) (A) (A) (A) (A) (A) (A) (A) (A) (A)
                 (A) (A) (A) (A) (A) (A) (A) (A) (A) (A) (A) (A)
                 (A) (A) (A) (A) (A) (A) (A) (A) (A) (A) (A) (A)
                 (A) (A) (A) (A) (A) (A) (A) (A) (A) (A) (A) (A)
                 (A) (A) (A) (A) (A) (A) (A) (A) (A) (A) (A) (A)
                 (A) (A) (A) (A) (A) (A) (A) (A) (A) (A) (A) (A)
                 (A) (A) (A) (A) (A) (A) (A) (A) (A) (A) (A) (A)
                 (A) (A) (A) (A) (A) (A) (A) (A) (A) (A) (A) (A)
                 (A) (A) (A) (A) (A) (A) (A) (A) (A) (A) (A) (A)
                 (A) (A) (A) (A) (A) (A) (A) (A) (A) (A) (A) (A)
                 (A) (A) (A) (A) (A) (A) (A) (A) (A) (A) (A) (A)
                 (A) (A) (A) (A) (A) (A) (A) (A) (A) (A) (A) (A)
                 (A) (A) (A) (A) (A) (A) (A) (A) (A) (A) (A) (A)
                 (A) (A) (A) (A) (A) (A) (A) (A) (A) (A) (A) (A)
                 (A) (A) (A) (A) (A) (A) (A) (A) (A) (A) (A) (A)
                 (A) (A) (A) (A) (A) (A) (A) (A) (A) (A) (A) (A)
                 (A) (A) (A) (A) (A) (A) (A) (A) (A) (A) (A) (A)
                 (A) (A) (A) (A) (A) (A) (A) (A) (A) (A) (A) (A)
                 (A) (A) (A) (A) (A) (A) (A) (A) (A) (A) (A) (A)
                 (A) (A) (A) (A) (A) (A) (A) (A) (A) (A) (A) (A)
                 (A) (A) (A) (A) (A) (A) (A) (A) (A) (A) (A) (A)
                 (A) (A) (A) (A) (A) (A) (A) (A) (A) (A) (A) (A)
                 (A) (A) (A) (A) (A) (A) (A) (A) (A) (A) (A) (A)
                 (A) (A) (A) (A) (A) (A) (A) (A) (A) (A) (A) (A)
                 (A) (A) (A) (A) (A) (A) (A) (A) (A) (A) (A) (A)
                 (A) (A) (A) (A) (A) (A) (A) (A) (A) (A) (A) (A)
                 (A) (A) (A) (A) (A) (A) (A) (A) (A) (A) (A) (A)
                 (A) (A) (A) (A) (A) (A) (A) (A) (A) (A) (A) (A)
                 (A) (A) (A) (A) (A) (A) (A) (A) (A) (A) (A) (A)
                 (A) (A) (A) (A) (A) (A) (A) (A) (A) (A) (A) (A)
                 (A) (A) (A) (A) (A) (A) (A) (A) (A) (A) (A) (A)
                 (A) (A) (A) (A) (A) (A) (A) (A) (A) (A) (A) (A)
                 (A) (A) (A) (A) (A) (A) (A) (A) (A) (A) (A) (A)
                 (A) (A) (A) (A) (A) (A) (A) (A) (A) (A) (A) (A)
                 (A) (A) (A) (A) (A) (A) (A) (A) (A) (A) (A) (A)
                 (A) (A) (A) (A) (A) (A) (A) (A) (A) (A) (A) (A)
                 (A) (A) (A) (A) (A) (A) (A) (A) (A) (A) (A) (A)
                 (A) (A) (A) (A) (A) (A) (A) (A) (A) (A) (A) (A)
                 (A) (A) (A) (A) (A) (A) (A) (A) (A) (A) (A) (A)
                 (A) (A) (A) (A) (A) (A) (A) (A) (A) (A) (A) (A)
                 (A) (A) (A) (A) (A) (A) (A) (A) (A) (A) (A) (A)
                 (A) (A) (A) (A) (A) (A) (A) (A) (A) (A) (A) (A)
                 (A) (A) (A) (A) (A) (A) (A) (A) (A) (A) (A) (A)
                 (A) (A) (A) (A) (A) (A) (A) (A) (A) (A) (A) (A)
                 (A) (A) (A) (A) (A) (A) (A) (A) (A) (A) (A) (A)
                 (A) (A) (A) (A) (A) (A) (A) (A) (A) (A) (A) (A)
                 (A) (A) (A) (A) (A) (A) (A) (A) (A) (A) (A) (A)
                 (A) (A) (A) (A) (A) (A) (A) (A) (A) (A) (A) (A)
                 (A) (A) (A) (A) (A) (A) (A) (A) (A) (A) (A) (A)
                 (A) (A) (A) (A) (A) (A) (A) (A) (A) (A) (A) (A)
                 (A) (A) (A) (A) (A) (A) (A) (A) (A) (A) (A) (A)
                 (A) (A) (A) (A) (A) (A) (A) (A) (A) (A) (A) (A)
                 (A) (A) (A) (A) (A) (A) (A) (A) (A) (A) (A) (A)
                 (A) (A) (A) (A) (A) (A) (A) (A) (A) (A) (A) (A)
                 (A) (A) (A) (A) (A) (A) (A) (A) (A) (A) (A) (A)
                 (A) (A) (A) (A) (A) (A) (A) (A) (A) (A) (A) (A)
                 (A) (A) (A) (A) (A) (A) (A) (A) (A) (A) (A)
 The electronic state is 1-A.
 Alpha  occ. eigenvalues --  -19.17387 -19.17293 -19.16978 -19.16698 -19.16663
 Alpha  occ. eigenvalues --  -19.16617 -19.16578 -19.16245 -19.15851 -19.15829
 Alpha  occ. eigenvalues --  -19.15775 -19.15506 -14.35424 -14.35018 -14.34612
 Alpha  occ. eigenvalues --  -14.34365 -10.24879 -10.24858 -10.24442 -10.24434
 Alpha  occ. eigenvalues --  -10.24347 -10.24326 -10.24313 -10.24231 -10.24133
 Alpha  occ. eigenvalues --  -10.24080 -10.23969 -10.23946 -10.23946 -10.23704
 Alpha  occ. eigenvalues --  -10.23696 -10.23589 -10.23533 -10.23482 -10.23458
 Alpha  occ. eigenvalues --  -10.23417 -10.23193 -10.23165 -10.22877 -10.22509
 Alpha  occ. eigenvalues --  -10.22499 -10.22385 -10.22365 -10.22207 -10.22066
 Alpha  occ. eigenvalues --  -10.21990 -10.21985 -10.21980 -10.21924 -10.21543
 Alpha  occ. eigenvalues --  -10.21484 -10.21464 -10.21050 -10.18996 -10.18974
 Alpha  occ. eigenvalues --  -10.18945 -10.18918 -10.18913 -10.18855 -10.18837
 Alpha  occ. eigenvalues --  -10.18699 -10.18641 -10.18604 -10.18572 -10.18530
 Alpha  occ. eigenvalues --  -10.18485 -10.18477 -10.18477 -10.18396 -10.18395
 Alpha  occ. eigenvalues --  -10.18340 -10.18333 -10.18333 -10.18322 -10.18233
 Alpha  occ. eigenvalues --  -10.18216 -10.18214 -10.18191 -10.18179 -10.18141
 Alpha  occ. eigenvalues --  -10.18121 -10.18108 -10.18055 -10.18036 -10.18026
 Alpha  occ. eigenvalues --  -10.17981 -10.17923 -10.17785 -10.17770 -10.17645
 Alpha  occ. eigenvalues --  -10.17599 -10.17256 -10.17151 -10.16654 -10.16642
 Alpha  occ. eigenvalues --  -10.16631 -10.16579 -10.16545 -10.16450 -10.16111
 Alpha  occ. eigenvalues --  -10.15975  -1.06918  -1.06742  -1.06637  -1.06399
 Alpha  occ. eigenvalues --   -1.06221  -1.06220  -1.06154  -1.05857  -1.05542
 Alpha  occ. eigenvalues --   -1.05506  -1.05213  -1.05110  -0.96206  -0.95772
 Alpha  occ. eigenvalues --   -0.95498  -0.95360  -0.89789  -0.86879  -0.85421
 Alpha  occ. eigenvalues --   -0.84897  -0.84819  -0.84730  -0.84477  -0.84403
 Alpha  occ. eigenvalues --   -0.83685  -0.83375  -0.82492  -0.82397  -0.80173
 Alpha  occ. eigenvalues --   -0.78031  -0.76864  -0.76489  -0.76102  -0.76022
 Alpha  occ. eigenvalues --   -0.75724  -0.75677  -0.75543  -0.75286  -0.74996
 Alpha  occ. eigenvalues --   -0.74723  -0.74433  -0.74332  -0.74193  -0.74174
 Alpha  occ. eigenvalues --   -0.74095  -0.74023  -0.73873  -0.73521  -0.72722
 Alpha  occ. eigenvalues --   -0.72408  -0.71883  -0.71481  -0.70818  -0.70759
 Alpha  occ. eigenvalues --   -0.69584  -0.69554  -0.68862  -0.68806  -0.68441
 Alpha  occ. eigenvalues --   -0.68184  -0.68137  -0.68076  -0.67719  -0.66873
 Alpha  occ. eigenvalues --   -0.66852  -0.64143  -0.63324  -0.62379  -0.61995
 Alpha  occ. eigenvalues --   -0.61926  -0.61210  -0.60909  -0.60700  -0.60344
 Alpha  occ. eigenvalues --   -0.60245  -0.59900  -0.59700  -0.59514  -0.58991
 Alpha  occ. eigenvalues --   -0.58715  -0.58212  -0.58152  -0.58076  -0.57313
[...]
 Alpha virt. eigenvalues --    2.06239   2.06364   2.06430   2.06545   2.06671
 Alpha virt. eigenvalues --    2.06723   2.06843   2.06879   2.07025   2.07240
 Alpha virt. eigenvalues --    2.07321   2.07553   2.07681   2.07770   2.08170
 Alpha virt. eigenvalues --    2.08379   2.08432   2.08760   2.09101   2.09271
 Alpha virt. eigenvalues --    2.09402   2.09612   2.09987   2.10360   2.10612
 Alpha virt. eigenvalues --    2.11013   2.11610   2.11945   2.12247   2.12539
 Alpha virt. eigenvalues --    2.12885   2.13042   2.13427   2.13526   2.13845
 Alpha virt. eigenvalues --    2.14018   2.14298   2.14502   2.14917   2.15000
 Alpha virt. eigenvalues --    2.15083   2.15447   2.15644   2.16014   2.16284
 Alpha virt. eigenvalues --    2.16553   2.16793   2.16974   2.17240   2.17365
 Alpha virt. eigenvalues --    2.17471   2.17625   2.17809   2.18062   2.18414
 Alpha virt. eigenvalues --    2.18786   2.19132   2.19818   2.20037   2.20361
 Alpha virt. eigenvalues --    2.20403   2.20774   2.20986   2.21074   2.21309
 Alpha virt. eigenvalues --    2.21635   2.21725   2.22145   2.22476   2.22535
 Alpha virt. eigenvalues --    2.22571   2.22956   2.23057   2.23201   2.23457
 Alpha virt. eigenvalues --    2.23612   2.23938   2.24227   2.24452   2.24622
 Alpha virt. eigenvalues --    2.24843   2.25149   2.25368   2.25439   2.25668
 Alpha virt. eigenvalues --    2.25902   2.26141   2.26353   2.26594   2.26788
 Alpha virt. eigenvalues --    2.26935   2.27302   2.27447   2.27700   2.27845
 Alpha virt. eigenvalues --    2.28305   2.28627   2.29175   2.29437   2.29685
 Alpha virt. eigenvalues --    2.30746   2.30929   2.31172   2.31983   2.32241
 Alpha virt. eigenvalues --    2.32401   2.32913   2.33465   2.34145   2.34588
 Alpha virt. eigenvalues --    2.34801   2.35173   2.36933   2.38296   2.38590
 Alpha virt. eigenvalues --    2.38790   2.38868   2.39197   2.39232   2.39448
 Alpha virt. eigenvalues --    2.39678   2.39738   2.39844   2.40268   2.40340
 Alpha virt. eigenvalues --    2.40445   2.40733   2.41226   2.41288   2.41807
 Alpha virt. eigenvalues --    2.42637   2.42753   2.43274   2.43917   2.44072
 Alpha virt. eigenvalues --    2.44076   2.44402   2.44428   2.44553   2.44679
 Alpha virt. eigenvalues --    2.44739   2.44991   2.45241   2.45487   2.45711
 Alpha virt. eigenvalues --    2.45837   2.46127   2.46323   2.47003   2.47687
 Alpha virt. eigenvalues --    2.47977   2.48508   2.48663   2.48859   2.49023
 Alpha virt. eigenvalues --    2.49146   2.49475   2.49747   2.49837   2.49966
 Alpha virt. eigenvalues --    2.50231   2.50326   2.50539   2.50755   2.50797
 Alpha virt. eigenvalues --    2.51330   2.51578   2.51835   2.51912   2.52118
 Alpha virt. eigenvalues --    2.52527   2.53150   2.53273   2.53590   2.53882
 Alpha virt. eigenvalues --    2.54267   2.54985   2.55253   2.55453   2.56564
 Alpha virt. eigenvalues --    2.56795   2.57428   2.57507   2.58234   2.58973
 Alpha virt. eigenvalues --    2.59583   2.59724   2.60298   2.60849   2.63051
 Alpha virt. eigenvalues --    2.63223   2.63556   2.63698   2.64059   2.64422
 Alpha virt. eigenvalues --    2.64498   2.65151   2.65496   2.66238   2.66491
 Alpha virt. eigenvalues --    2.66550   2.67059   2.67367   2.67692   2.68059
 Alpha virt. eigenvalues --    2.68381   2.69093   2.69725   2.69838   2.71374
 Alpha virt. eigenvalues --    2.71930   2.73683   2.74004   2.74140   2.74909
 Alpha virt. eigenvalues --    2.75500   2.76173   2.76253   2.76527   2.77271
 Alpha virt. eigenvalues --    2.77452   2.77787   2.78342   2.78501   2.79069
 Alpha virt. eigenvalues --    2.80005   2.80556   2.81884   2.82351   2.85538
 Alpha virt. eigenvalues --    2.85711   2.86095   2.86242   2.86933   2.87479
 Alpha virt. eigenvalues --    2.87713   2.87794   2.87863   2.87997   2.88271
 Alpha virt. eigenvalues --    2.88309   2.88543   2.88602   2.90240   2.90588
 Alpha virt. eigenvalues --    2.91261   2.92011   2.92101   2.92195   2.94382
 Alpha virt. eigenvalues --    2.94709   2.95483   2.95932   2.97153   2.97827
 Alpha virt. eigenvalues --    3.01332   3.01789   3.01918   3.02150   3.02414
 Alpha virt. eigenvalues --    3.02694   3.02808   3.02957   3.03009   3.03130
 Alpha virt. eigenvalues --    3.03343   3.03631   3.03676   3.03813   3.03964
 Alpha virt. eigenvalues --    3.04041   3.04331   3.04352   3.04378   3.04517
 Alpha virt. eigenvalues --    3.04849   3.04892   3.05055   3.05596   3.05900
 Alpha virt. eigenvalues --    3.06236   3.06967   3.07468   3.08486   3.08807
 Alpha virt. eigenvalues --    3.08968   3.09438   3.12578   3.17357   3.17770
 Alpha virt. eigenvalues --    3.19785   3.19836   3.26815   3.26861   3.26967
 Alpha virt. eigenvalues --    3.27319   3.38210   3.38453   3.38687   3.38953
 Alpha virt. eigenvalues --    3.39713   3.40086   3.40282   3.40514   3.40549
 Alpha virt. eigenvalues --    3.40703   3.40899   3.41332   3.41658   3.41871
 Alpha virt. eigenvalues --    3.42035   3.42588   3.43480   3.43685   3.55034
 Alpha virt. eigenvalues --    3.55170   3.65194   3.65673   3.65744   3.65864
 Alpha virt. eigenvalues --    3.68489   3.68804   3.70008   3.70071
          Condensed to atoms (all electrons):
 Mulliken atomic charges:
              1
     1  C   -0.303585
     2  C    0.103709
     3  C    0.048376
     4  C    0.042369
     5  C    0.096026
     6  C    0.109405
     7  C    0.043001
     8  C    0.044796
     9  C    0.091847
    10  C    0.025837
    11  C    0.071453
    12  C    0.072538
    13  C   -0.008508
    14  C   -0.010548
    15  C    0.060929
    16  C    0.084170
    17  C    0.019812
    18  C    0.046218
    19  C    0.033599
    20  C    0.086784
    21  C   -0.011084
    22  C   -0.008044
    23  C    0.086322
    24  C    0.037956
    25  C    0.036721
    26  N   -0.281896
    27  N   -0.279525
    28  N   -0.283366
    29  N   -0.279548
    30  C    0.052393
    31  C    0.044874
    32  C    0.058906
    33  C    0.067519
    34  C    0.029716
    35  C    0.105637
    36  C    0.021870
    37  C    0.083944
    38  C    0.054178
    39  C   -0.001809
    40  C    0.120777
    41  C    0.050793
    42  C    0.057210
    43  C    0.058037
    44  C   -0.002070
    45  C    0.125344
    46  C    0.037336
    47  C    0.051166
    48  C    0.013397
    49  C    0.135124
    50  C   -0.076003
    51  C    0.135547
    52  C    0.014039
    53  C    0.018958
    54  C    0.136194
    55  C   -0.061392
    56  C    0.137704
    57  C    0.028927
    58  C   -0.008613
    59  C    0.155202
    60  C    0.028174
    61  C    0.153810
    62  C   -0.017398
    63  C    0.029935
    64  C   -0.005905
    65  C    0.116690
    66  C    0.045735
    67  C    0.042163
    68  C    0.039664
    69  C    0.040275
    70  C    0.113675
    71  C    0.000388
    72  C    0.034492
    73  C   -0.024401
    74  C    0.153435
    75  C    0.025775
    76  C    0.152951
    77  C   -0.028225
    78  H   -0.050455
    79  H   -0.049361
    80  H   -0.044077
    81  H   -0.054256
    82  H   -0.054922
    83  H   -0.032049
    84  H   -0.053318
    85  H   -0.038051
    86  H   -0.054968
    87  H   -0.033526
    88  H   -0.037697
    89  H   -0.042095
    90  O   -0.288197
    91  C    0.130435
    92  O   -0.284519
    93  C    0.131967
    94  O   -0.280535
    95  O   -0.280629
    96  C    0.130823
    97  C    0.129880
    98  H   -0.028881
    99  H   -0.028541
   100  H   -0.035911
   101  H   -0.036506
   102  H   -0.033905
   103  H   -0.032448
   104  H   -0.026300
   105  H   -0.031490
   106  H   -0.028501
   107  H   -0.036429
   108  H   -0.013912
   109  H   -0.027295
   110  H   -0.034957
   111  H   -0.027031
   112  H   -0.034048
   113  H   -0.027043
   114  H    0.023324
   115  H    0.023826
   116  H    0.029988
   117  H    0.024213
   118  H    0.025213
   119  H    0.031793
   120  H    0.033831
   121  H    0.026488
   122  H    0.025418
   123  H    0.025805
   124  H    0.024441
   125  H    0.032940
   126  O   -0.286725
   127  H   -0.039873
   128  H   -0.037386
   129  O   -0.295802
   130  H   -0.045181
   131  H   -0.035890
   132  O   -0.287655
   133  H   -0.038995
   134  O   -0.287302
   135  H   -0.037611
   136  O   -0.289426
   137  H   -0.027399
   138  H   -0.049805
   139  O   -0.288605
   140  H   -0.020768
   141  H   -0.028395
   142  O   -0.283660
   143  H   -0.054153
   144  O   -0.284970
   145  H   -0.032309
   146  C    0.135308
   147  C    0.134179
   148  C    0.137103
   149  C    0.134210
   150  H    0.028692
   151  H    0.025583
   152  H    0.025863
   153  H    0.035405
   154  H    0.026876
   155  H    0.026242
   156  H    0.030953
   157  H    0.023454
   158  H    0.022840
   159  H    0.028732
   160  H    0.027214
   161  H    0.026836
   162  C    0.133085
   163  H    0.039150
   164  H    0.026550
   165  H    0.027990
   166  C    0.123030
   167  H    0.032644
   168  H    0.026959
   169  H    0.030324
   170  C    0.121085
   171  H    0.036204
   172  H    0.037086
   173  H    0.023332
   174  C    0.137096
   175  H    0.031904
   176  H    0.022090
   177  H    0.023452
 Sum of Mulliken atomic charges =   0.00000
 Mulliken charges with hydrogens summed into heavy atoms:
              1
     1  C   -0.303585
     2  C    0.103709
     3  C    0.048376
     4  C    0.042369
     5  C    0.096026
     6  C    0.109405
     7  C    0.043001
     8  C    0.044796
     9  C    0.091847
    10  C   -0.016258
    11  C    0.071453
    12  C    0.039012
    13  C   -0.063475
    14  C   -0.065470
    15  C    0.028881
    16  C    0.084170
    17  C   -0.017885
    18  C   -0.003143
    19  C    0.033599
    20  C    0.042707
    21  C   -0.065340
    22  C   -0.061362
    23  C    0.048270
    24  C    0.037956
    25  C   -0.013734
    26  N   -0.281896
    27  N   -0.279525
    28  N   -0.283366
    29  N   -0.279548
    30  C    0.052393
    31  C    0.044874
    32  C    0.058906
    33  C    0.067519
    34  C    0.029716
    35  C    0.105637
    36  C    0.021870
    37  C    0.083944
    38  C    0.021730
    39  C   -0.035714
    40  C    0.120777
    41  C    0.021913
    42  C    0.028669
    43  C    0.022126
    44  C   -0.038576
    45  C    0.125344
    46  C    0.011036
    47  C    0.019676
    48  C   -0.018912
    49  C    0.135124
    50  C   -0.130156
    51  C    0.135547
    52  C   -0.014356
    53  C   -0.008441
    54  C    0.136194
    55  C   -0.111197
    56  C    0.137704
    57  C    0.008159
    58  C   -0.053794
    59  C    0.155202
    60  C   -0.009212
    61  C    0.153810
    62  C   -0.057271
    63  C    0.002904
    64  C   -0.040862
    65  C    0.116690
    66  C    0.011687
    67  C    0.015120
    68  C    0.012369
    69  C    0.026363
    70  C    0.113675
    71  C   -0.036041
    72  C    0.005991
    73  C   -0.060290
    74  C    0.153435
    75  C   -0.013219
    76  C    0.152951
    77  C   -0.065835
    90  O   -0.288197
    91  C    0.213620
    92  O   -0.284519
    93  C    0.209105
    94  O   -0.280535
    95  O   -0.280629
    96  C    0.212042
    97  C    0.215618
   126  O   -0.286725
   129  O   -0.295802
   132  O   -0.287655
   134  O   -0.287302
   136  O   -0.289426
   139  O   -0.288605
   142  O   -0.283660
   144  O   -0.284970
   146  C    0.215447
   147  C    0.222703
   148  C    0.214351
   149  C    0.216993
   162  C    0.226775
   166  C    0.212956
   170  C    0.217707
   174  C    0.214541
 Sum of Mulliken charges with hydrogens summed into heavy atoms =   0.00000
 Electronic spatial extent (au):  <R**2>=         122840.3198
 Charge=              0.0000 electrons
 Dipole moment (field-independent basis, Debye):
    X=             -2.8878    Y=             -6.1942    Z=              0.9172  Tot=              6.8956
 Quadrupole moment (field-independent basis, Debye-Ang):
   XX=           -515.0837   YY=           -540.2291   ZZ=           -538.3341
   XY=             17.2473   XZ=             34.8069   YZ=              7.4009
 Traceless Quadrupole moment (field-independent basis, Debye-Ang):
   XX=             16.1319   YY=             -9.0134   ZZ=             -7.1184
   XY=             17.2473   XZ=             34.8069   YZ=              7.4009
 Octapole moment (field-independent basis, Debye-Ang**2):
  XXX=           -663.8609  YYY=           -380.4194  ZZZ=             19.6096  XYY=            337.6416
  XXY=           -192.5176  XXZ=              0.1870  XZZ=            -44.7247  YZZ=           -164.5007
  YYZ=             17.3068  XYZ=             51.9707
 Hexadecapole moment (field-independent basis, Debye-Ang**3):
 XXXX=         -72551.6926 YYYY=         -61237.7244 ZZZZ=         -20403.0722 XXXY=           1571.1063
 XXXZ=           3609.0648 YYYX=            916.9271 YYYZ=            672.4057 ZZZX=            880.0235
 ZZZY=           -361.9990 XXYY=         -20400.8617 XXZZ=         -14967.0163 YYZZ=         -12049.0268
 XXYZ=           -552.0885 YYXZ=            551.1289 ZZXY=            -17.8491
 N-N= 1.925829865186D+04 E-N=-4.877541549982D+04  KE= 4.378287850263D+03
 Leave Link  601 at Mon Feb  2 23:58:04 2015, MaxMem= 2147483648 cpu:      87.4
 (Enter /opt/g09/l9999.exe)
 1\1\GINC-CHPC-SCANDIUM\SP\RB3LYP\CC-pVDZ\C85H76N4O12\JARVIST\02-Feb-20
 15\0\\#p sp B3LYP/cc-pVDZ\\Auto Spiro; and yes I said yes I will Yes.\
 \0,1\C,0,-0.059352,0.221691,0.141608\C,0,-0.847829,1.120118,1.104247\C
 ,0,-0.631856,0.71913,2.43892\C,0,0.362018,-0.356917,2.452526\C,0,0.724
 379,-0.654543,1.124824\C,0,-1.005466,-0.587244,-0.762209\C,0,-0.731401
 ,-0.330294,-2.11781\C,0,0.41054,0.580811,-2.20281\C,0,0.819124,0.92642
 3,-0.898047\C,0,-2.021671,-1.4516,-0.385547\C,0,-2.787451,-2.087106,-1
 .38081\C,0,-2.51476,-1.826159,-2.737458\C,0,-1.498856,-0.94931,-3.1078
 78\C,0,0.963335,-1.055782,3.501856\C,0,1.913562,-2.034273,3.219102\C,0
 ,2.289783,-2.319182,1.892113\C,0,1.679708,-1.614601,0.835952\C,0,-1.74
 7561,2.13062,0.79956\C,0,-2.467323,2.744752,1.84004\C,0,-2.261841,2.33
 5344,3.168525\C,0,-1.345349,1.330233,3.473449\C,0,1.123024,1.054852,-3
 .306788\C,0,2.252667,1.841035,-3.09903\C,0,2.683509,2.160021,-1.799041
 \C,0,1.942203,1.715718,-0.688466\N,0,-3.809234,-3.004052,-1.014873\N,0
 ,3.290727,-3.28818,1.627293\N,0,-3.419256,3.764871,1.541965\N,0,3.8970
 28,2.886058,-1.624842\C,0,5.082277,2.392055,-2.231559\C,0,-2.981515,4.
 953188,0.901191\C,0,3.910764,4.069868,-0.840859\C,0,-4.77627,3.583871,
 1.915164\C,0,-3.532402,-3.972306,-0.002705\C,0,-5.064004,-2.994914,-1.
 669245\C,0,4.431193,-3.373654,2.480235\C,0,3.199005,-4.135794,0.494509
 \C,0,4.858213,-4.608311,2.978539\C,0,5.981551,-4.704138,3.802651\C,0,6
 .683825,-3.54766,4.160332\C,0,6.254508,-2.30396,3.673293\C,0,5.150624,
 -2.220069,2.836612\C,0,-4.422052,-4.178174,1.055985\C,0,-4.161565,-5.1
 3384,2.040883\C,0,-2.982082,-5.885187,1.987902\C,0,-2.078422,-5.674885
 ,0.9358\C,0,-2.354614,-4.73735,-0.049872\C,0,-5.758925,-4.194513,-1.88
 2604\C,0,-7.001876,-4.172081,-2.516811\C,0,-7.570269,-2.972193,-2.9670
 25\C,0,-6.858564,-1.783283,-2.752369\C,0,-5.624112,-1.783577,-2.101743
 \C,0,4.34536,-4.432613,-0.255403\C,0,4.246861,-5.269623,-1.368334\C,0,
 3.017786,-5.819905,-1.758536\C,0,1.882563,-5.510587,-0.995684\C,0,1.96
 3252,-4.683792,0.125167\C,0,-1.787295,5.554457,1.321709\C,0,-1.349784,
 6.724235,0.689877\C,0,-2.091618,7.295933,-0.345532\C,0,-3.284298,6.690
 291,-0.749777\C,0,-3.737803,5.515626,-0.138404\C,0,-5.376736,2.320806,
 1.84056\C,0,-6.703851,2.125792,2.230552\C,0,-7.466116,3.206671,2.68354
 7\C,0,-6.876368,4.477101,2.752254\C,0,-5.5508,4.661423,2.38578\C,0,2.8
 57419,4.997461,-0.929648\C,0,2.864671,6.159876,-0.170307\C,0,3.93566,6
 .435424,0.69177\C,0,4.991252,5.522785,0.788384\C,0,4.967232,4.346976,0
 .035624\C,0,5.307983,1.007785,-2.270729\C,0,6.465365,0.516936,-2.88676
 6\C,0,7.403577,1.390669,-3.441435\C,0,7.172646,2.767077,-3.385153\C,0,
 6.012618,3.280456,-2.793198\H,0,2.282495,1.956904,0.314406\H,0,-1.9260
 37,2.438258,-0.22673\H,0,-2.831075,2.817013,3.957981\H,0,-1.193604,1.0
 30084,4.507214\H,0,0.694544,-0.850736,4.53508\H,0,2.379618,-2.586257,4
 .028618\H,0,0.814011,0.80511,-4.318583\H,0,2.832404,2.201782,-3.942961
 \H,0,-1.299919,-0.76908,-4.16135\H,0,-3.107082,-2.323802,-3.498286\H,0
 ,1.967153,-1.822051,-0.189571\H,0,-2.232334,-1.646945,0.661384\O,0,3.8
 54229,7.611117,1.394722\C,0,4.925908,7.944358,2.260151\O,0,-8.775707,3
 .132608,3.079137\C,0,-9.413565,1.869348,3.025897\O,0,7.786419,-3.52182
 2,4.967312\O,0,-2.623913,-6.839345,2.900083\C,0,-3.495094,-7.079848,3.
 991334\C,0,8.264526,-4.751613,5.485594\H,0,6.81365,-1.416215,3.952059\
 H,0,4.833331,-1.254741,2.454448\H,0,-5.334227,-3.591665,1.107238\H,0,-
 4.876565,-5.270334,2.844192\H,0,6.28639,-5.678778,4.166365\H,0,4.30924
 3,-5.506914,2.714377\H,0,-1.16855,-6.26459,0.892405\H,0,-1.646087,-4.5
 94143,-0.859214\H,0,5.785549,3.63987,0.125719\H,0,5.828662,5.702076,1.
 453469\H,0,2.046264,6.869686,-0.237665\H,0,2.028209,4.802096,-1.602312
 \H,0,-7.129012,1.131003,2.159104\H,0,-4.801259,1.476287,1.475142\H,0,-
 7.474106,5.30813,3.114404\H,0,-5.104592,5.647759,2.460387\H,0,-8.91674
 5,1.135802,3.675796\H,0,-9.445893,1.473314,2.001553\H,0,-10.433374,2.0
 31317,3.381047\H,0,-4.481,-7.428634,3.654599\H,0,-3.625678,-6.18249,4.
 611324\H,0,-3.02154,-7.862585,4.587258\H,0,9.139402,-4.503005,6.089328
 \H,0,8.562095,-5.44059,4.683612\H,0,7.51453,-5.242572,6.120427\H,0,5.8
 74615,8.031858,1.713552\H,0,5.043938,7.205482,3.064598\H,0,4.671404,8.
 912597,2.695732\O,0,-3.940942,7.319946,-1.770452\H,0,-4.64982,5.02582,
 -0.452928\H,0,-1.752842,8.207417,-0.823955\O,0,-0.20844,7.391497,1.038
 636\H,0,-1.232244,5.109615,2.136387\H,0,4.586488,0.342476,-1.816955\O,
 0,6.771448,-0.811023,-2.975288\H,0,8.302532,1.00547,-3.908095\O,0,8.14
 0707,3.545181,-3.958387\H,0,5.812838,4.343177,-2.767425\O,0,5.419903,-
 5.481138,-2.042153\H,0,5.312125,-4.023386,0.011601\H,0,2.946653,-6.462
 189,-2.62428\O,0,0.632401,-5.99806,-1.270461\H,0,1.065583,-4.479617,0.
 696364\H,0,-5.119681,-0.839469,-1.936971\O,0,-7.313281,-0.550957,-3.13
 5643\H,0,-8.529466,-2.963499,-3.463921\O,0,-7.59585,-5.39515,-2.674323
 \H,0,-5.348683,-5.146229,-1.568668\C,0,7.976557,4.952814,-3.931012\C,0
 ,5.401898,-6.31031,-3.192413\C,0,-8.840403,-5.461668,-3.346915\C,0,-5.
 167153,6.769857,-2.221782\H,0,8.863752,5.366457,-4.4149\H,0,7.912594,5
 .334305,-2.903288\H,0,7.082618,5.268629,-4.485423\H,0,6.429662,-6.3343
 59,-3.559358\H,0,4.74811,-5.903652,-3.975473\H,0,5.081069,-7.332056,-2
 .949258\H,0,-9.113351,-6.518696,-3.367996\H,0,-8.766539,-5.087386,-4.3
 77041\H,0,-9.620529,-4.899069,-2.816042\H,0,-5.519168,7.43465,-3.01326
 1\H,0,-5.915351,6.733487,-1.418914\H,0,-5.032291,5.759874,-2.631416\C,
 0,0.469076,-6.884799,-2.365733\H,0,-0.589628,-7.149288,-2.378418\H,0,1
 .069567,-7.79545,-2.240225\H,0,0.73353,-6.404752,-3.317101\C,0,5.86600
 5,-1.748831,-2.410516\H,0,6.294338,-2.736531,-2.588863\H,0,4.877693,-1
 .692534,-2.885016\H,0,5.750741,-1.597625,-1.329582\C,0,0.484965,6.9699
 11,2.207241\H,0,1.344931,7.63416,2.298476\H,0,0.846309,5.938859,2.1135
 24\H,0,-0.154095,7.05327,3.096208\C,0,-8.572118,-0.462962,-3.778437\H,
 0,-8.729922,0.597722,-3.983804\H,0,-9.383854,-0.830566,-3.135868\H,0,-
 8.584764,-1.019148,-4.725671\\Version=EM64L-G09RevA.02\State=1-A\HF=-4
 406.6340738\RMSD=3.575e-09\Dipole=-1.1361662,-2.4369924,0.3608391\Quad
 rupole=11.9936631,-6.7012798,-5.2923834,12.8229703,25.8780421,5.502367
 2\PG=C01 [X(C85H76N4O12)]\\@


 WE HAVE LEARNED THAT NOTHING IS SIMPLE AND
 RATIONAL EXCEPT WHAT WE OURSELVES HAVE INVENTED;
 THAT GOD THINKS IN TERMS NEITHER OF EUCLID OR RIEMANN; THAT SCIENCE HAS "EXPLAINED" NOTHING;
 THAT THE MORE WE KNOW THE MORE FANTASTIC THE WORLD BECOMES
 AND THE PROFOUNDER THE SURROUNDING DARKNESS.
   --  ALDOUS HUXLEY
 Job cpu time:  0 days 11 hours  3 minutes 38.0 seconds.
 File lengths (MBytes):  RWF=   1716 Int=      0 D2E=      0 Chk=    112 Scr=      1
 Normal termination of Gaussian 09 at Mon Feb  2 23:58:04 2015.
