 Entering Gaussian System, Link 0=g09
 Input=sp_4_B3LYP_cc-pVDZ.com
 Output=sp_4_B3LYP_cc-pVDZ.log
 Initial command:
 /opt/g09/l1.exe /home/jarvist/2014-07_SPIRO/b3lyp-631gs_opt/delta_scf/neutral/Gau-44346.inp -scrdir=/home/jarvist/2014-07_SPIRO/b3lyp-631gs_opt/delta_scf/neutral/
 Default is to use a total of   8 processors:
                                8 via shared-memory
                                1 via Linda
 Entering Link 1 = /opt/g09/l1.exe PID=     44348.
  
 Copyright (c) 1988,1990,1992,1993,1995,1998,2003,2009, Gaussian, Inc.
                  All Rights Reserved.
  
 This is part of the Gaussian(R) 09 program.  It is based on
 the Gaussian(R) 03 system (copyright 2003, Gaussian, Inc.),
 the Gaussian(R) 98 system (copyright 1998, Gaussian, Inc.),
 the Gaussian(R) 94 system (copyright 1995, Gaussian, Inc.),
 the Gaussian 92(TM) system (copyright 1992, Gaussian, Inc.),
 the Gaussian 90(TM) system (copyright 1990, Gaussian, Inc.),
 the Gaussian 88(TM) system (copyright 1988, Gaussian, Inc.),
 the Gaussian 86(TM) system (copyright 1986, Carnegie Mellon
 University), and the Gaussian 82(TM) system (copyright 1983,
 Carnegie Mellon University). Gaussian is a federally registered
 trademark of Gaussian, Inc.
  
 This software contains proprietary and confidential information,
 including trade secrets, belonging to Gaussian, Inc.
  
 This software is provided under written license and may be
 used, copied, transmitted, or stored only in accord with that
 written license.
  
 The following legend is applicable only to US Government
 contracts under FAR:
  
                    RESTRICTED RIGHTS LEGEND
  
 Use, reproduction and disclosure by the US Government is
 subject to restrictions as set forth in subparagraphs (a)
 and (c) of the Commercial Computer Software - Restricted
 Rights clause in FAR 52.227-19.
  
 Gaussian, Inc.
 340 Quinnipiac St., Bldg. 40, Wallingford CT 06492
  
  
 ---------------------------------------------------------------
 Warning -- This program may not be used in any manner that
 competes with the business of Gaussian, Inc. or will provide
 assistance to any competitor of Gaussian, Inc.  The licensee
 of this program is prohibited from giving any competitor of
 Gaussian, Inc. access to this program.  By using this program,
 the user acknowledges that Gaussian, Inc. is engaged in the
 business of creating and licensing software in the field of
 computational chemistry and represents and warrants to the
 licensee that it is not a competitor of Gaussian, Inc. and that
 it will not use this program in any manner prohibited above.
 ---------------------------------------------------------------
  

 Cite this work as:
 Gaussian 09, Revision A.02,
 M. J. Frisch, G. W. Trucks, H. B. Schlegel, G. E. Scuseria, 
 M. A. Robb, J. R. Cheeseman, G. Scalmani, V. Barone, B. Mennucci, 
 G. A. Petersson, H. Nakatsuji, M. Caricato, X. Li, H. P. Hratchian, 
 A. F. Izmaylov, J. Bloino, G. Zheng, J. L. Sonnenberg, M. Hada, 
 M. Ehara, K. Toyota, R. Fukuda, J. Hasegawa, M. Ishida, T. Nakajima, 
 Y. Honda, O. Kitao, H. Nakai, T. Vreven, J. A. Montgomery, Jr., 
 J. E. Peralta, F. Ogliaro, M. Bearpark, J. J. Heyd, E. Brothers, 
 K. N. Kudin, V. N. Staroverov, R. Kobayashi, J. Normand, 
 K. Raghavachari, A. Rendell, J. C. Burant, S. S. Iyengar, J. Tomasi, 
 M. Cossi, N. Rega, J. M. Millam, M. Klene, J. E. Knox, J. B. Cross, 
 V. Bakken, C. Adamo, J. Jaramillo, R. Gomperts, R. E. Stratmann, 
 O. Yazyev, A. J. Austin, R. Cammi, C. Pomelli, J. W. Ochterski, 
 R. L. Martin, K. Morokuma, V. G. Zakrzewski, G. A. Voth, 
 P. Salvador, J. J. Dannenberg, S. Dapprich, A. D. Daniels, 
 O. Farkas, J. B. Foresman, J. V. Ortiz, J. Cioslowski, 
 and D. J. Fox, Gaussian, Inc., Wallingford CT, 2009.
 
 ******************************************
 Gaussian 09:  EM64L-G09RevA.02 11-Jun-2009
                 2-Feb-2015 
 ******************************************
 %mem=16GB
 %nprocs=24
 Will use up to   24 processors via shared memory.
 Default route:  MaxDisk=100GB
 -------------------
 #p sp B3LYP/cc-pVDZ
 -------------------
 1/38=1/1;
 2/12=2,17=6,18=5,40=1/2;
 3/5=16,11=2,16=1,25=1,30=1,74=-5/1,2,3;
 4//1;
 5/5=2,38=5/2;
 6/7=2,8=2,9=2,10=2,28=1/1;
 99/5=1,9=1/99;
 Leave Link    1 at Mon Feb  2 23:58:04 2015, MaxMem= 2147483648 cpu:       1.1
 (Enter /opt/g09/l101.exe)
 ------------------------------------------
 Auto Spiro; and yes I said yes I will Yes.
 ------------------------------------------
 Symbolic Z-matrix:
 Charge =  0 Multiplicity = 1
 C                    -0.04498  -0.03002  -0.1131 
 C                     0.72298  -0.92181   0.86972 
 C                     0.41297  -0.57376   2.19924 
 C                    -0.55239   0.52718   2.18557 
 C                    -0.83477   0.86646   0.84782 
 C                     0.85976   0.74817  -1.07557 
 C                     0.53632   0.44508  -2.41263 
 C                    -0.56873  -0.51559  -2.42402 
 C                    -0.92542  -0.81252  -1.09436 
 C                     1.88398   1.62801  -0.76385 
 C                     2.60564   2.24127  -1.80567 
 C                     2.27229   1.94929  -3.14216 
 C                     1.25283   1.0506   -3.44789 
 C                    -1.18156   1.22586   3.2186 
 C                    -2.07106   2.25233   2.91019 
 C                    -2.36009   2.5869    1.573 
 C                    -1.73187   1.87429   0.5328 
 C                     1.62531  -1.93288   0.58054 
 C                     2.23135  -2.63751   1.63854 
 C                     1.9148   -2.29503   2.96687 
 C                     1.01943  -1.2661    3.25005 
 C                    -1.25925  -1.12635  -3.4739 
 C                    -2.28507  -2.0241   -3.1897 
 C                    -2.65107  -2.3116   -1.86021 
 C                    -1.95656  -1.69167  -0.80373 
 N                     3.65095   3.15667  -1.50869 
 N                    -3.28984   3.6194    1.28423 
 N                     3.16799  -3.67287   1.37522 
 N                    -3.6997   -3.22858  -1.58751 
 C                    -4.88227  -3.2284   -2.37366 
 C                     2.94904  -4.60634   0.33023 
 C                    -3.56629  -4.1513   -0.51001 
 C                     4.35     -3.76039   2.16731 
 C                     3.46865   4.10884  -0.46357 
 C                     4.86051   3.13488  -2.24758 
 C                    -4.47011   3.73505   2.07755 
 C                    -3.07191   4.5197    0.21061 
 C                    -4.85271   4.9666    2.61848 
 C                    -6.0127    5.08833   3.38655 
 C                    -6.79854   3.95973   3.64551 
 C                    -6.41491   2.71862   3.11618 
 C                    -5.27309   2.61074   2.33482 
 C                     4.46466   4.3246    0.49444 
 C                     4.29629   5.26548   1.51256 
 C                     3.10389   5.99215   1.60073 
 C                     2.09405   5.77174   0.65231 
 C                     2.27853   4.85124  -0.37023 
 C                     5.52073   4.32833  -2.5594 
 C                     6.72794   4.31012  -3.26799 
 C                     7.2822    3.09795  -3.69477 
 C                     6.60754   1.91146  -3.38803 
 C                     5.41906   1.91176  -2.66921 
 C                    -4.14906   4.97045  -0.55941 
 C                    -3.94669   5.88015  -1.60415 
 C                    -2.65941   6.33736  -1.907 
 C                    -1.5882    5.87174  -1.13717 
 C                    -1.77437   4.98301  -0.08564 
 C                     1.65965  -5.0791    0.04692 
 C                     1.47719  -6.00161  -0.98503 
 C                     2.54986  -6.47825  -1.73008 
 C                     3.83981  -6.00961  -1.44198 
 C                     4.04077  -5.0719   -0.42662 
 C                     5.1348   -2.62866   2.41159 
 C                     6.28482  -2.70323   3.20102 
 C                     6.68029  -3.93153   3.74198 
 C                     5.90452  -5.07375   3.49267 
 C                     4.75085  -4.98679   2.72646 
 C                    -2.37919  -4.88469  -0.33514 
 C                    -2.24818  -5.78343   0.7145 
 C                    -3.3083   -5.99135   1.6097 
 C                    -4.49739  -5.27367   1.44068 
 C                    -4.6132   -4.35426   0.39563 
 C                    -5.45969  -2.02466  -2.79927 
 C                    -6.62207  -2.0544   -3.57218 
 C                    -7.23163  -3.25586  -3.91483 
 C                    -6.65679  -4.46054  -3.48288 
 C                    -5.48353  -4.45134  -2.72566 
 H                    -2.23495  -1.9047    0.22363 
 H                     1.87017  -2.18501  -0.44648 
 H                     2.37987  -2.84669   3.77745 
 H                     0.79047  -1.02169   4.28433 
 H                    -0.97562   0.98761   4.25915 
 H                    -2.55307   2.80835   3.70759 
 H                    -0.99518  -0.92196  -4.50845 
 H                    -2.81571  -2.51354  -3.99976 
 H                     1.0141    0.84142  -4.48763 
 H                     2.82318   2.43543  -3.94077 
 H                    -1.95706   2.1167   -0.50092 
 H                     2.1367    1.84722   0.26894 
 O                    -3.08135  -6.9071    2.59894 
 C                    -4.11377  -7.14109   3.54128 
 O                     7.78967  -4.12339   4.51797 
 C                     8.60661  -3.00097   4.80389 
 O                    -7.94402   3.96009   4.39196 
 O                     2.82838   6.92838   2.55802 
 C                     3.8127    7.18185   3.54555 
 C                    -8.3782    5.18947   4.94789 
 H                    -7.03806   1.85296   3.31824 
 H                    -4.99089   1.64873   1.9184 
 H                     5.38819   3.75681   0.43929 
 H                     5.09346   5.40848   2.23324 
 H                    -6.28103   6.06022   3.78487 
 H                    -4.24086   5.84342   2.43026 
 H                     1.17528   6.34512   0.72969 
 H                     1.49383   4.69334  -1.10372 
 H                    -5.53402  -3.79142   0.27857 
 H                    -5.3319   -5.40513   2.12018 
 H                    -1.33247  -6.34982   0.85476 
 H                    -1.55489  -4.73739  -1.02619 
 H                     6.86503  -1.80351   3.37191 
 H                     4.83952  -1.67487   1.98526 
 H                     6.21778  -6.01856   3.92615 
 H                     4.14942  -5.8733    2.55078 
 H                     8.05215  -2.22495   5.34878 
 H                     9.0292   -2.5636    3.88912 
 H                     9.418    -3.37236   5.43279 
 H                     4.74575   7.55453   3.10139 
 H                     4.03183   6.28373   4.13877 
 H                     3.39297   7.95006   4.19786 
 H                    -9.2968    4.96471   5.49333 
 H                    -8.59291   5.93314   4.1685 
 H                    -7.63641   5.60396   5.64397 
 H                    -5.02242  -7.52727   3.05952 
 H                    -4.36485  -6.23025   4.10141 
 H                    -3.72578  -7.89257   4.23156 
 O                     4.84119  -6.51874  -2.22087 
 H                     5.02886  -4.68834  -0.20812 
 H                     2.41909  -7.20357  -2.52616 
 H                     0.47671  -6.36943  -1.19886 
 H                     0.81473  -4.72987   0.62991 
 H                    -5.00477  -1.08008  -2.52242 
 H                    -7.06758  -1.11787  -3.89741 
 H                    -8.14107  -3.29013  -4.5055 
 O                    -7.31016  -5.59817  -3.86755 
 H                    -5.01858  -5.3734   -2.40135 
 O                    -5.07804   6.24914  -2.27844 
 H                    -5.15747   4.62528  -0.36212 
 H                    -2.48198   7.03824  -2.71378 
 H                    -0.5864    6.23109  -1.35938 
 H                    -0.93125   4.64751   0.50789 
 H                     4.92177   0.97962  -2.42566 
 H                     7.03433   0.96409  -3.70751 
 H                     8.21302   3.06419  -4.248 
 O                     7.27854   5.5396   -3.50607 
 H                     5.11184   5.28595  -2.25803 
 C                    -6.77973  -6.84906  -3.46233 
 C                    -4.94211   7.13335  -3.3778 
 C                     8.48044   5.60042  -4.25455 
 C                     6.17025  -6.09093  -1.97431 
 H                    -7.45771  -7.60539  -3.86275 
 H                    -6.74168  -6.9383   -2.36847 
 H                    -5.77322  -7.01356  -3.86982 
 H                    -5.94993   7.27894  -3.77171 
 H                    -4.30394   6.70757  -4.16368 
 H                    -4.531     8.10408  -3.06939 
 H                     8.72927   6.66034  -4.33651 
 H                     8.35322   5.17949  -5.26102 
 H                     9.30119   5.07482  -3.74795 
 H                     6.79573  -6.63218  -2.68698 
 H                     6.4913   -6.33299  -0.95245 
 H                     6.28562  -5.01121  -2.13925 
 
 NAtoms=    161 NQM=    161 NQMF=      0 NMic=      0 NMicF=      0 NTot=    161.
                    Isotopes and Nuclear Properties:
 (Nuclear quadrupole moments (NQMom) in fm**2, nuclear magnetic moments (NMagM)
  in nuclear magnetons)

  Atom         1           2           3           4           5           6           7           8           9          10
 IAtWgt=          12          12          12          12          12          12          12          12          12          12
 AtmWgt=  12.0000000  12.0000000  12.0000000  12.0000000  12.0000000  12.0000000  12.0000000  12.0000000  12.0000000  12.0000000
 NucSpn=           0           0           0           0           0           0           0           0           0           0
 AtZEff=   0.0000000   0.0000000   0.0000000   0.0000000   0.0000000   0.0000000   0.0000000   0.0000000   0.0000000   0.0000000
 NQMom=    0.0000000   0.0000000   0.0000000   0.0000000   0.0000000   0.0000000   0.0000000   0.0000000   0.0000000   0.0000000
 NMagM=    0.0000000   0.0000000   0.0000000   0.0000000   0.0000000   0.0000000   0.0000000   0.0000000   0.0000000   0.0000000

  Atom        11          12          13          14          15          16          17          18          19          20
 IAtWgt=          12          12          12          12          12          12          12          12          12          12
 AtmWgt=  12.0000000  12.0000000  12.0000000  12.0000000  12.0000000  12.0000000  12.0000000  12.0000000  12.0000000  12.0000000
 NucSpn=           0           0           0           0           0           0           0           0           0           0
 AtZEff=   0.0000000   0.0000000   0.0000000   0.0000000   0.0000000   0.0000000   0.0000000   0.0000000   0.0000000   0.0000000
 NQMom=    0.0000000   0.0000000   0.0000000   0.0000000   0.0000000   0.0000000   0.0000000   0.0000000   0.0000000   0.0000000
 NMagM=    0.0000000   0.0000000   0.0000000   0.0000000   0.0000000   0.0000000   0.0000000   0.0000000   0.0000000   0.0000000

  Atom        21          22          23          24          25          26          27          28          29          30
 IAtWgt=          12          12          12          12          12          14          14          14          14          12
 AtmWgt=  12.0000000  12.0000000  12.0000000  12.0000000  12.0000000  14.0030740  14.0030740  14.0030740  14.0030740  12.0000000
 NucSpn=           0           0           0           0           0           2           2           2           2           0
 AtZEff=   0.0000000   0.0000000   0.0000000   0.0000000   0.0000000   0.0000000   0.0000000   0.0000000   0.0000000   0.0000000
 NQMom=    0.0000000   0.0000000   0.0000000   0.0000000   0.0000000   2.0440000   2.0440000   2.0440000   2.0440000   0.0000000
 NMagM=    0.0000000   0.0000000   0.0000000   0.0000000   0.0000000   0.4037610   0.4037610   0.4037610   0.4037610   0.0000000

  Atom        31          32          33          34          35          36          37          38          39          40
 IAtWgt=          12          12          12          12          12          12          12          12          12          12
 AtmWgt=  12.0000000  12.0000000  12.0000000  12.0000000  12.0000000  12.0000000  12.0000000  12.0000000  12.0000000  12.0000000
 NucSpn=           0           0           0           0           0           0           0           0           0           0
 AtZEff=   0.0000000   0.0000000   0.0000000   0.0000000   0.0000000   0.0000000   0.0000000   0.0000000   0.0000000   0.0000000
 NQMom=    0.0000000   0.0000000   0.0000000   0.0000000   0.0000000   0.0000000   0.0000000   0.0000000   0.0000000   0.0000000
 NMagM=    0.0000000   0.0000000   0.0000000   0.0000000   0.0000000   0.0000000   0.0000000   0.0000000   0.0000000   0.0000000

  Atom        41          42          43          44          45          46          47          48          49          50
 IAtWgt=          12          12          12          12          12          12          12          12          12          12
 AtmWgt=  12.0000000  12.0000000  12.0000000  12.0000000  12.0000000  12.0000000  12.0000000  12.0000000  12.0000000  12.0000000
 NucSpn=           0           0           0           0           0           0           0           0           0           0
 AtZEff=   0.0000000   0.0000000   0.0000000   0.0000000   0.0000000   0.0000000   0.0000000   0.0000000   0.0000000   0.0000000
 NQMom=    0.0000000   0.0000000   0.0000000   0.0000000   0.0000000   0.0000000   0.0000000   0.0000000   0.0000000   0.0000000
 NMagM=    0.0000000   0.0000000   0.0000000   0.0000000   0.0000000   0.0000000   0.0000000   0.0000000   0.0000000   0.0000000

  Atom        51          52          53          54          55          56          57          58          59          60
 IAtWgt=          12          12          12          12          12          12          12          12          12          12
 AtmWgt=  12.0000000  12.0000000  12.0000000  12.0000000  12.0000000  12.0000000  12.0000000  12.0000000  12.0000000  12.0000000
 NucSpn=           0           0           0           0           0           0           0           0           0           0
 AtZEff=   0.0000000   0.0000000   0.0000000   0.0000000   0.0000000   0.0000000   0.0000000   0.0000000   0.0000000   0.0000000
 NQMom=    0.0000000   0.0000000   0.0000000   0.0000000   0.0000000   0.0000000   0.0000000   0.0000000   0.0000000   0.0000000
 NMagM=    0.0000000   0.0000000   0.0000000   0.0000000   0.0000000   0.0000000   0.0000000   0.0000000   0.0000000   0.0000000

  Atom        61          62          63          64          65          66          67          68          69          70
 IAtWgt=          12          12          12          12          12          12          12          12          12          12
 AtmWgt=  12.0000000  12.0000000  12.0000000  12.0000000  12.0000000  12.0000000  12.0000000  12.0000000  12.0000000  12.0000000
 NucSpn=           0           0           0           0           0           0           0           0           0           0
 AtZEff=   0.0000000   0.0000000   0.0000000   0.0000000   0.0000000   0.0000000   0.0000000   0.0000000   0.0000000   0.0000000
 NQMom=    0.0000000   0.0000000   0.0000000   0.0000000   0.0000000   0.0000000   0.0000000   0.0000000   0.0000000   0.0000000
 NMagM=    0.0000000   0.0000000   0.0000000   0.0000000   0.0000000   0.0000000   0.0000000   0.0000000   0.0000000   0.0000000

  Atom        71          72          73          74          75          76          77          78          79          80
 IAtWgt=          12          12          12          12          12          12          12           1           1           1
 AtmWgt=  12.0000000  12.0000000  12.0000000  12.0000000  12.0000000  12.0000000  12.0000000   1.0078250   1.0078250   1.0078250
 NucSpn=           0           0           0           0           0           0           0           1           1           1
 AtZEff=   0.0000000   0.0000000   0.0000000   0.0000000   0.0000000   0.0000000   0.0000000   0.0000000   0.0000000   0.0000000
 NQMom=    0.0000000   0.0000000   0.0000000   0.0000000   0.0000000   0.0000000   0.0000000   0.0000000   0.0000000   0.0000000
 NMagM=    0.0000000   0.0000000   0.0000000   0.0000000   0.0000000   0.0000000   0.0000000   2.7928460   2.7928460   2.7928460

  Atom        81          82          83          84          85          86          87          88          89          90
 IAtWgt=           1           1           1           1           1           1           1           1           1          16
 AtmWgt=   1.0078250   1.0078250   1.0078250   1.0078250   1.0078250   1.0078250   1.0078250   1.0078250   1.0078250  15.9949146
 NucSpn=           1           1           1           1           1           1           1           1           1           0
 AtZEff=   0.0000000   0.0000000   0.0000000   0.0000000   0.0000000   0.0000000   0.0000000   0.0000000   0.0000000   0.0000000
 NQMom=    0.0000000   0.0000000   0.0000000   0.0000000   0.0000000   0.0000000   0.0000000   0.0000000   0.0000000   0.0000000
 NMagM=    2.7928460   2.7928460   2.7928460   2.7928460   2.7928460   2.7928460   2.7928460   2.7928460   2.7928460   0.0000000

  Atom        91          92          93          94          95          96          97          98          99         100
 IAtWgt=          12          16          12          16          16          12          12           1           1           1
 AtmWgt=  12.0000000  15.9949146  12.0000000  15.9949146  15.9949146  12.0000000  12.0000000   1.0078250   1.0078250   1.0078250
 NucSpn=           0           0           0           0           0           0           0           1           1           1
 AtZEff=   0.0000000   0.0000000   0.0000000   0.0000000   0.0000000   0.0000000   0.0000000   0.0000000   0.0000000   0.0000000
 NQMom=    0.0000000   0.0000000   0.0000000   0.0000000   0.0000000   0.0000000   0.0000000   0.0000000   0.0000000   0.0000000
 NMagM=    0.0000000   0.0000000   0.0000000   0.0000000   0.0000000   0.0000000   0.0000000   2.7928460   2.7928460   2.7928460

  Atom       101         102         103         104         105         106         107         108         109         110
 IAtWgt=           1           1           1           1           1           1           1           1           1           1
 AtmWgt=   1.0078250   1.0078250   1.0078250   1.0078250   1.0078250   1.0078250   1.0078250   1.0078250   1.0078250   1.0078250
 NucSpn=           1           1           1           1           1           1           1           1           1           1
 AtZEff=   0.0000000   0.0000000   0.0000000   0.0000000   0.0000000   0.0000000   0.0000000   0.0000000   0.0000000   0.0000000
 NQMom=    0.0000000   0.0000000   0.0000000   0.0000000   0.0000000   0.0000000   0.0000000   0.0000000   0.0000000   0.0000000
 NMagM=    2.7928460   2.7928460   2.7928460   2.7928460   2.7928460   2.7928460   2.7928460   2.7928460   2.7928460   2.7928460

  Atom       111         112         113         114         115         116         117         118         119         120
 IAtWgt=           1           1           1           1           1           1           1           1           1           1
 AtmWgt=   1.0078250   1.0078250   1.0078250   1.0078250   1.0078250   1.0078250   1.0078250   1.0078250   1.0078250   1.0078250
 NucSpn=           1           1           1           1           1           1           1           1           1           1
 AtZEff=   0.0000000   0.0000000   0.0000000   0.0000000   0.0000000   0.0000000   0.0000000   0.0000000   0.0000000   0.0000000
 NQMom=    0.0000000   0.0000000   0.0000000   0.0000000   0.0000000   0.0000000   0.0000000   0.0000000   0.0000000   0.0000000
 NMagM=    2.7928460   2.7928460   2.7928460   2.7928460   2.7928460   2.7928460   2.7928460   2.7928460   2.7928460   2.7928460

  Atom       121         122         123         124         125         126         127         128         129         130
 IAtWgt=           1           1           1           1           1          16           1           1           1           1
 AtmWgt=   1.0078250   1.0078250   1.0078250   1.0078250   1.0078250  15.9949146   1.0078250   1.0078250   1.0078250   1.0078250
 NucSpn=           1           1           1           1           1           0           1           1           1           1
 AtZEff=   0.0000000   0.0000000   0.0000000   0.0000000   0.0000000   0.0000000   0.0000000   0.0000000   0.0000000   0.0000000
 NQMom=    0.0000000   0.0000000   0.0000000   0.0000000   0.0000000   0.0000000   0.0000000   0.0000000   0.0000000   0.0000000
 NMagM=    2.7928460   2.7928460   2.7928460   2.7928460   2.7928460   0.0000000   2.7928460   2.7928460   2.7928460   2.7928460

  Atom       131         132         133         134         135         136         137         138         139         140
 IAtWgt=           1           1           1          16           1          16           1           1           1           1
 AtmWgt=   1.0078250   1.0078250   1.0078250  15.9949146   1.0078250  15.9949146   1.0078250   1.0078250   1.0078250   1.0078250
 NucSpn=           1           1           1           0           1           0           1           1           1           1
 AtZEff=   0.0000000   0.0000000   0.0000000   0.0000000   0.0000000   0.0000000   0.0000000   0.0000000   0.0000000   0.0000000
 NQMom=    0.0000000   0.0000000   0.0000000   0.0000000   0.0000000   0.0000000   0.0000000   0.0000000   0.0000000   0.0000000
 NMagM=    2.7928460   2.7928460   2.7928460   0.0000000   2.7928460   0.0000000   2.7928460   2.7928460   2.7928460   2.7928460

  Atom       141         142         143         144         145         146         147         148         149         150
 IAtWgt=           1           1           1          16           1          12          12          12          12           1
 AtmWgt=   1.0078250   1.0078250   1.0078250  15.9949146   1.0078250  12.0000000  12.0000000  12.0000000  12.0000000   1.0078250
 NucSpn=           1           1           1           0           1           0           0           0           0           1
 AtZEff=   0.0000000   0.0000000   0.0000000   0.0000000   0.0000000   0.0000000   0.0000000   0.0000000   0.0000000   0.0000000
 NQMom=    0.0000000   0.0000000   0.0000000   0.0000000   0.0000000   0.0000000   0.0000000   0.0000000   0.0000000   0.0000000
 NMagM=    2.7928460   2.7928460   2.7928460   0.0000000   2.7928460   0.0000000   0.0000000   0.0000000   0.0000000   2.7928460

  Atom       151         152         153         154         155         156         157         158         159         160
 IAtWgt=           1           1           1           1           1           1           1           1           1           1
 AtmWgt=   1.0078250   1.0078250   1.0078250   1.0078250   1.0078250   1.0078250   1.0078250   1.0078250   1.0078250   1.0078250
 NucSpn=           1           1           1           1           1           1           1           1           1           1
 AtZEff=   0.0000000   0.0000000   0.0000000   0.0000000   0.0000000   0.0000000   0.0000000   0.0000000   0.0000000   0.0000000
 NQMom=    0.0000000   0.0000000   0.0000000   0.0000000   0.0000000   0.0000000   0.0000000   0.0000000   0.0000000   0.0000000
 NMagM=    2.7928460   2.7928460   2.7928460   2.7928460   2.7928460   2.7928460   2.7928460   2.7928460   2.7928460   2.7928460

  Atom       161
 IAtWgt=           1
 AtmWgt=   1.0078250
 NucSpn=           1
 AtZEff=   0.0000000
 NQMom=    0.0000000
 NMagM=    2.7928460
 Leave Link  101 at Mon Feb  2 23:58:04 2015, MaxMem= 2147483648 cpu:       3.5
 (Enter /opt/g09/l202.exe)
 Stoichiometry    C81H68N4O8
 Framework group  C1[X(C81H68N4O8)]
 Deg. of freedom   477
 Full point group                 C1      NOp   1
 Largest Abelian subgroup         C1      NOp   1
 Largest concise Abelian subgroup C1      NOp   1
                         Standard orientation:                         
 ---------------------------------------------------------------------
 Center     Atomic      Atomic             Coordinates (Angstroms)
 Number     Number       Type             X           Y           Z
 ---------------------------------------------------------------------
      1          6           0       -0.044978   -0.030016   -0.113100
      2          6           0        0.722977   -0.921813    0.869724
      3          6           0        0.412972   -0.573761    2.199242
      4          6           0       -0.552392    0.527180    2.185568
      5          6           0       -0.834772    0.866458    0.847817
      6          6           0        0.859758    0.748170   -1.075572
      7          6           0        0.536319    0.445077   -2.412626
      8          6           0       -0.568733   -0.515585   -2.424020
      9          6           0       -0.925418   -0.812519   -1.094359
     10          6           0        1.883980    1.628013   -0.763846
     11          6           0        2.605637    2.241265   -1.805674
     12          6           0        2.272294    1.949288   -3.142161
     13          6           0        1.252825    1.050600   -3.447895
     14          6           0       -1.181563    1.225860    3.218597
     15          6           0       -2.071062    2.252328    2.910189
     16          6           0       -2.360093    2.586904    1.572999
     17          6           0       -1.731866    1.874293    0.532799
     18          6           0        1.625305   -1.932878    0.580544
     19          6           0        2.231349   -2.637514    1.638540
     20          6           0        1.914796   -2.295034    2.966872
     21          6           0        1.019426   -1.266104    3.250048
     22          6           0       -1.259251   -1.126347   -3.473902
     23          6           0       -2.285074   -2.024096   -3.189704
     24          6           0       -2.651071   -2.311600   -1.860211
     25          6           0       -1.956557   -1.691670   -0.803734
     26          7           0        3.650946    3.156670   -1.508690
     27          7           0       -3.289841    3.619404    1.284229
     28          7           0        3.167989   -3.672872    1.375218
     29          7           0       -3.699695   -3.228581   -1.587511
     30          6           0       -4.882269   -3.228401   -2.373662
     31          6           0        2.949035   -4.606341    0.330230
     32          6           0       -3.566290   -4.151299   -0.510010
     33          6           0        4.349998   -3.760392    2.167312
     34          6           0        3.468650    4.108841   -0.463568
     35          6           0        4.860506    3.134884   -2.247580
     36          6           0       -4.470105    3.735047    2.077546
     37          6           0       -3.071912    4.519695    0.210611
     38          6           0       -4.852715    4.966604    2.618475
     39          6           0       -6.012703    5.088329    3.386555
     40          6           0       -6.798543    3.959727    3.645509
     41          6           0       -6.414906    2.718619    3.116181
     42          6           0       -5.273090    2.610744    2.334824
     43          6           0        4.464658    4.324604    0.494444
     44          6           0        4.296290    5.265477    1.512560
     45          6           0        3.103887    5.992148    1.600731
     46          6           0        2.094049    5.771739    0.652311
     47          6           0        2.278527    4.851236   -0.370226
     48          6           0        5.520728    4.328325   -2.559398
     49          6           0        6.727935    4.310119   -3.267994
     50          6           0        7.282201    3.097946   -3.694765
     51          6           0        6.607541    1.911458   -3.388027
     52          6           0        5.419056    1.911757   -2.669214
     53          6           0       -4.149061    4.970445   -0.559406
     54          6           0       -3.946686    5.880152   -1.604148
     55          6           0       -2.659410    6.337361   -1.906998
     56          6           0       -1.588202    5.871739   -1.137171
     57          6           0       -1.774365    4.983015   -0.085643
     58          6           0        1.659645   -5.079102    0.046923
     59          6           0        1.477192   -6.001612   -0.985033
     60          6           0        2.549858   -6.478255   -1.730080
     61          6           0        3.839812   -6.009612   -1.441979
     62          6           0        4.040766   -5.071902   -0.426617
     63          6           0        5.134803   -2.628655    2.411593
     64          6           0        6.284822   -2.703225    3.201022
     65          6           0        6.680291   -3.931534    3.741982
     66          6           0        5.904520   -5.073749    3.492666
     67          6           0        4.750848   -4.986789    2.726461
     68          6           0       -2.379187   -4.884691   -0.335141
     69          6           0       -2.248175   -5.783431    0.714498
     70          6           0       -3.308301   -5.991345    1.609703
     71          6           0       -4.497394   -5.273665    1.440678
     72          6           0       -4.613200   -4.354258    0.395630
     73          6           0       -5.459687   -2.024661   -2.799271
     74          6           0       -6.622072   -2.054396   -3.572177
     75          6           0       -7.231635   -3.255862   -3.914833
     76          6           0       -6.656794   -4.460543   -3.482884
     77          6           0       -5.483531   -4.451340   -2.725656
     78          1           0       -2.234951   -1.904703    0.223631
     79          1           0        1.870168   -2.185008   -0.446483
     80          1           0        2.379867   -2.846692    3.777451
     81          1           0        0.790471   -1.021690    4.284329
     82          1           0       -0.975622    0.987606    4.259150
     83          1           0       -2.553073    2.808346    3.707590
     84          1           0       -0.995178   -0.921956   -4.508451
     85          1           0       -2.815706   -2.513539   -3.999761
     86          1           0        1.014103    0.841416   -4.487627
     87          1           0        2.823179    2.435432   -3.940771
     88          1           0       -1.957061    2.116702   -0.500918
     89          1           0        2.136697    1.847219    0.268943
     90          8           0       -3.081350   -6.907104    2.598941
     91          6           0       -4.113770   -7.141085    3.541279
     92          8           0        7.789672   -4.123387    4.517971
     93          6           0        8.606606   -3.000975    4.803893
     94          8           0       -7.944016    3.960086    4.391963
     95          8           0        2.828380    6.928384    2.558018
     96          6           0        3.812703    7.181852    3.545550
     97          6           0       -8.378205    5.189469    4.947888
     98          1           0       -7.038061    1.852957    3.318239
     99          1           0       -4.990890    1.648732    1.918402
    100          1           0        5.388185    3.756806    0.439285
    101          1           0        5.093462    5.408485    2.233243
    102          1           0       -6.281026    6.060218    3.784873
    103          1           0       -4.240864    5.843419    2.430264
    104          1           0        1.175278    6.345118    0.729693
    105          1           0        1.493826    4.693337   -1.103716
    106          1           0       -5.534024   -3.791421    0.278566
    107          1           0       -5.331904   -5.405128    2.120179
    108          1           0       -1.332470   -6.349822    0.854757
    109          1           0       -1.554890   -4.737387   -1.026195
    110          1           0        6.865033   -1.803512    3.371912
    111          1           0        4.839522   -1.674874    1.985261
    112          1           0        6.217782   -6.018561    3.926147
    113          1           0        4.149415   -5.873296    2.550783
    114          1           0        8.052147   -2.224947    5.348776
    115          1           0        9.029204   -2.563601    3.889116
    116          1           0        9.418001   -3.372356    5.432791
    117          1           0        4.745751    7.554527    3.101393
    118          1           0        4.031825    6.283731    4.138766
    119          1           0        3.392974    7.950056    4.197858
    120          1           0       -9.296796    4.964706    5.493332
    121          1           0       -8.592908    5.933143    4.168498
    122          1           0       -7.636406    5.603963    5.643973
    123          1           0       -5.022419   -7.527269    3.059525
    124          1           0       -4.364849   -6.230249    4.101406
    125          1           0       -3.725777   -7.892571    4.231563
    126          8           0        4.841194   -6.518742   -2.220868
    127          1           0        5.028857   -4.688336   -0.208124
    128          1           0        2.419095   -7.203566   -2.526161
    129          1           0        0.476711   -6.369432   -1.198859
    130          1           0        0.814734   -4.729870    0.629913
    131          1           0       -5.004768   -1.080075   -2.522424
    132          1           0       -7.067577   -1.117871   -3.897407
    133          1           0       -8.141069   -3.290133   -4.505500
    134          8           0       -7.310163   -5.598170   -3.867552
    135          1           0       -5.018579   -5.373400   -2.401349
    136          8           0       -5.078039    6.249140   -2.278442
    137          1           0       -5.157467    4.625276   -0.362118
    138          1           0       -2.481975    7.038243   -2.713780
    139          1           0       -0.586403    6.231090   -1.359377
    140          1           0       -0.931251    4.647509    0.507886
    141          1           0        4.921772    0.979623   -2.425662
    142          1           0        7.034332    0.964085   -3.707512
    143          1           0        8.213022    3.064191   -4.248000
    144          8           0        7.278540    5.539604   -3.506067
    145          1           0        5.111845    5.285953   -2.258026
    146          6           0       -6.779729   -6.849063   -3.462328
    147          6           0       -4.942106    7.133354   -3.377804
    148          6           0        8.480441    5.600417   -4.254552
    149          6           0        6.170254   -6.090928   -1.974311
    150          1           0       -7.457708   -7.605394   -3.862751
    151          1           0       -6.741680   -6.938303   -2.368465
    152          1           0       -5.773224   -7.013562   -3.869815
    153          1           0       -5.949928    7.278940   -3.771710
    154          1           0       -4.303935    6.707570   -4.163684
    155          1           0       -4.531002    8.104076   -3.069391
    156          1           0        8.729272    6.660336   -4.336507
    157          1           0        8.353215    5.179486   -5.261018
    158          1           0        9.301185    5.074822   -3.747945
    159          1           0        6.795732   -6.632177   -2.686981
    160          1           0        6.491299   -6.332993   -0.952454
    161          1           0        6.285619   -5.011209   -2.139250
 ---------------------------------------------------------------------
 Rotational constants (GHZ):      0.0161423      0.0150548      0.0103918
 Leave Link  202 at Mon Feb  2 23:58:04 2015, MaxMem= 2147483648 cpu:       0.1
 (Enter /opt/g09/l301.exe)
 Standard basis: CC-pVDZ (5D, 7F)
 Ernie: Thresh=  0.10000D-02 Tol=  0.10000D-05 Strict=F.
 Ernie:  186 primitive shells out of 2386 were deleted.
 There are  1642 symmetry adapted basis functions of A   symmetry.
 Integral buffers will be    131072 words long.
 Raffenetti 2 integral format.
 Two-electron integral symmetry is turned on.
  1642 basis functions,  3545 primitive gaussians,  1735 cartesian basis functions
   323 alpha electrons      323 beta electrons
       nuclear repulsion energy     16242.5341068453 Hartrees.
 IExCor=  402 DFT=T Ex+Corr=B3LYP ExCW=0 ScaHFX=  0.200000
 ScaDFX=  0.800000  0.720000  1.000000  0.810000 ScalE2=  1.000000  1.000000
 IRadAn=      0 IRanWt=     -1 IRanGd=            0 ICorTp=0
 NAtoms=  161 NActive=  161 NUniq=  161 SFac= 7.50D-01 NAtFMM=   80 NAOKFM=T Big=T
 Leave Link  301 at Mon Feb  2 23:58:04 2015, MaxMem= 2147483648 cpu:       1.4
 (Enter /opt/g09/l302.exe)
 NPDir=0 NMtPBC=     1 NCelOv=     1 NCel=       1 NClECP=     1 NCelD=      1
         NCelK=      1 NCelE2=     1 NClLst=     1 CellRange=     0.0.
 One-electron integrals computed using PRISM.
 NBasis=  1642 RedAO= T  NBF=  1642
 NBsUse=  1642 1.00D-06 NBFU=  1642
 Precomputing XC quadrature grid using
 IXCGrd= 2 IRadAn=           0 IRanWt=          -1 IRanGd=           0 AccXCQ= 1.00D-10.
 NRdTot=   10546 NPtTot=     1351736 NUsed=     1427664 NTot=     1427696
 NSgBfM=  1163  1183  1186  1206  1239 NAtAll=   161   155.
 Leave Link  302 at Mon Feb  2 23:58:25 2015, MaxMem= 2147483648 cpu:     492.3
 (Enter /opt/g09/l303.exe)
 DipDrv:  MaxL=1.
 Leave Link  303 at Mon Feb  2 23:58:27 2015, MaxMem= 2147483648 cpu:      36.9
 (Enter /opt/g09/l401.exe)
 Harris functional with IExCor=  402 diagonalized for initial guess.
 ExpMin= 1.22D-01 ExpMax= 1.17D+04 ExpMxC= 4.01D+02 IAcc=1 IRadAn=         1 AccDes= 0.00D+00
 HarFok:  IExCor=  402 AccDes= 0.00D+00 IRadAn=         1 IDoV= 1
 ScaDFX=  1.000000  1.000000  1.000000  1.000000
 FoFCou: FMM=F IPFlag=           0 FMFlag=      100000 FMFlg1=        2001
         NFxFlg=           0 DoJE=T BraDBF=F KetDBF=T FulRan=T
         Omega=  0.000000  0.000000  1.000000  0.000000  0.000000 ICntrl=     500 IOpCl=  0
         NMat0=    1 NMatS0=    1 NMatT0=    0 NMatD0=    1 NMtDS0=    0 NMtDT0=    0
         I1Cent=           4 NGrid=           0.
 Petite list used in FoFCou.
 Harris En= -3948.67332555403    
 Initial guess orbital symmetries:
       Occupied  (A) (A) (A) (A) (A) (A) (A) (A) (A) (A) (A) (A)
                 (A) (A) (A) (A) (A) (A) (A) (A) (A) (A) (A) (A)
                 (A) (A) (A) (A) (A) (A) (A) (A) (A) (A) (A) (A)
                 (A) (A) (A) (A) (A) (A) (A) (A) (A) (A) (A) (A)
                 (A) (A) (A) (A) (A) (A) (A) (A) (A) (A) (A) (A)
                 (A) (A) (A) (A) (A) (A) (A) (A) (A) (A) (A) (A)
                 (A) (A) (A) (A) (A) (A) (A) (A) (A) (A) (A) (A)
                 (A) (A) (A) (A) (A) (A) (A) (A) (A) (A) (A) (A)
                 (A) (A) (A) (A) (A) (A) (A) (A) (A) (A) (A) (A)
                 (A) (A) (A) (A) (A) (A) (A) (A) (A) (A) (A) (A)
                 (A) (A) (A) (A) (A) (A) (A) (A) (A) (A) (A) (A)
                 (A) (A) (A) (A) (A) (A) (A) (A) (A) (A) (A) (A)
                 (A) (A) (A) (A) (A) (A) (A) (A) (A) (A) (A) (A)
                 (A) (A) (A) (A) (A) (A) (A) (A) (A) (A) (A) (A)
                 (A) (A) (A) (A) (A) (A) (A) (A) (A) (A) (A) (A)
                 (A) (A) (A) (A) (A) (A) (A) (A) (A) (A) (A) (A)
                 (A) (A) (A) (A) (A) (A) (A) (A) (A) (A) (A) (A)
                 (A) (A) (A) (A) (A) (A) (A) (A) (A) (A) (A) (A)
                 (A) (A) (A) (A) (A) (A) (A) (A) (A) (A) (A) (A)
                 (A) (A) (A) (A) (A) (A) (A) (A) (A) (A) (A) (A)
                 (A) (A) (A) (A) (A) (A) (A) (A) (A) (A) (A) (A)
                 (A) (A) (A) (A) (A) (A) (A) (A) (A) (A) (A) (A)
                 (A) (A) (A) (A) (A) (A) (A) (A) (A) (A) (A) (A)
                 (A) (A) (A) (A) (A) (A) (A) (A) (A) (A) (A) (A)
                 (A) (A) (A) (A) (A) (A) (A) (A) (A) (A) (A) (A)
                 (A) (A) (A) (A) (A) (A) (A) (A) (A) (A) (A) (A)
                 (A) (A) (A) (A) (A) (A) (A) (A) (A) (A) (A)
       Virtual   (A) (A) (A) (A) (A) (A) (A) (A) (A) (A) (A) (A)
                 (A) (A) (A) (A) (A) (A) (A) (A) (A) (A) (A) (A)
                 (A) (A) (A) (A) (A) (A) (A) (A) (A) (A) (A) (A)
                 (A) (A) (A) (A) (A) (A) (A) (A) (A) (A) (A) (A)
                 (A) (A) (A) (A) (A) (A) (A) (A) (A) (A) (A) (A)
                 (A) (A) (A) (A) (A) (A) (A) (A) (A) (A) (A) (A)
                 (A) (A) (A) (A) (A) (A) (A) (A) (A) (A) (A) (A)
                 (A) (A) (A) (A) (A) (A) (A) (A) (A) (A) (A) (A)
                 (A) (A) (A) (A) (A) (A) (A) (A) (A) (A) (A) (A)
                 (A) (A) (A) (A) (A) (A) (A) (A) (A) (A) (A) (A)
                 (A) (A) (A) (A) (A) (A) (A) (A) (A) (A) (A) (A)
                 (A) (A) (A) (A) (A) (A) (A) (A) (A) (A) (A) (A)
                 (A) (A) (A) (A) (A) (A) (A) (A) (A) (A) (A) (A)
                 (A) (A) (A) (A) (A) (A) (A) (A) (A) (A) (A) (A)
                 (A) (A) (A) (A) (A) (A) (A) (A) (A) (A) (A) (A)
                 (A) (A) (A) (A) (A) (A) (A) (A) (A) (A) (A) (A)
                 (A) (A) (A) (A) (A) (A) (A) (A) (A) (A) (A) (A)
                 (A) (A) (A) (A) (A) (A) (A) (A) (A) (A) (A) (A)
                 (A) (A) (A) (A) (A) (A) (A) (A) (A) (A) (A) (A)
                 (A) (A) (A) (A) (A) (A) (A) (A) (A) (A) (A) (A)
                 (A) (A) (A) (A) (A) (A) (A) (A) (A) (A) (A) (A)
                 (A) (A) (A) (A) (A) (A) (A) (A) (A) (A) (A) (A)
                 (A) (A) (A) (A) (A) (A) (A) (A) (A) (A) (A) (A)
                 (A) (A) (A) (A) (A) (A) (A) (A) (A) (A) (A) (A)
                 (A) (A) (A) (A) (A) (A) (A) (A) (A) (A) (A) (A)
                 (A) (A) (A) (A) (A) (A) (A) (A) (A) (A) (A) (A)
                 (A) (A) (A) (A) (A) (A) (A) (A) (A) (A) (A) (A)
                 (A) (A) (A) (A) (A) (A) (A) (A) (A) (A) (A) (A)
                 (A) (A) (A) (A) (A) (A) (A) (A) (A) (A) (A) (A)
                 (A) (A) (A) (A) (A) (A) (A) (A) (A) (A) (A) (A)
                 (A) (A) (A) (A) (A) (A) (A) (A) (A) (A) (A) (A)
                 (A) (A) (A) (A) (A) (A) (A) (A) (A) (A) (A) (A)
                 (A) (A) (A) (A) (A) (A) (A) (A) (A) (A) (A) (A)
                 (A) (A) (A) (A) (A) (A) (A) (A) (A) (A) (A) (A)
                 (A) (A) (A) (A) (A) (A) (A) (A) (A) (A) (A) (A)
                 (A) (A) (A) (A) (A) (A) (A) (A) (A) (A) (A) (A)
                 (A) (A) (A) (A) (A) (A) (A) (A) (A) (A) (A) (A)
                 (A) (A) (A) (A) (A) (A) (A) (A) (A) (A) (A) (A)
                 (A) (A) (A) (A) (A) (A) (A) (A) (A) (A) (A) (A)
                 (A) (A) (A) (A) (A) (A) (A) (A) (A) (A) (A) (A)
                 (A) (A) (A) (A) (A) (A) (A) (A) (A) (A) (A) (A)
                 (A) (A) (A) (A) (A) (A) (A) (A) (A) (A) (A) (A)
                 (A) (A) (A) (A) (A) (A) (A) (A) (A) (A) (A) (A)
                 (A) (A) (A) (A) (A) (A) (A) (A) (A) (A) (A) (A)
                 (A) (A) (A) (A) (A) (A) (A) (A) (A) (A) (A) (A)
                 (A) (A) (A) (A) (A) (A) (A) (A) (A) (A) (A) (A)
                 (A) (A) (A) (A) (A) (A) (A) (A) (A) (A) (A) (A)
                 (A) (A) (A) (A) (A) (A) (A) (A) (A) (A) (A) (A)
                 (A) (A) (A) (A) (A) (A) (A) (A) (A) (A) (A) (A)
                 (A) (A) (A) (A) (A) (A) (A) (A) (A) (A) (A) (A)
                 (A) (A) (A) (A) (A) (A) (A) (A) (A) (A) (A) (A)
                 (A) (A) (A) (A) (A) (A) (A) (A) (A) (A) (A) (A)
                 (A) (A) (A) (A) (A) (A) (A) (A) (A) (A) (A) (A)
                 (A) (A) (A) (A) (A) (A) (A) (A) (A) (A) (A) (A)
                 (A) (A) (A) (A) (A) (A) (A) (A) (A) (A) (A) (A)
                 (A) (A) (A) (A) (A) (A) (A) (A) (A) (A) (A) (A)
                 (A) (A) (A) (A) (A) (A) (A) (A) (A) (A) (A) (A)
                 (A) (A) (A) (A) (A) (A) (A) (A) (A) (A) (A) (A)
                 (A) (A) (A) (A) (A) (A) (A) (A) (A) (A) (A) (A)
                 (A) (A) (A) (A) (A) (A) (A) (A) (A) (A) (A) (A)
                 (A) (A) (A) (A) (A) (A) (A) (A) (A) (A) (A) (A)
                 (A) (A) (A) (A) (A) (A) (A) (A) (A) (A) (A) (A)
                 (A) (A) (A) (A) (A) (A) (A) (A) (A) (A) (A) (A)
                 (A) (A) (A) (A) (A) (A) (A) (A) (A) (A) (A) (A)
                 (A) (A) (A) (A) (A) (A) (A) (A) (A) (A) (A) (A)
                 (A) (A) (A) (A) (A) (A) (A) (A) (A) (A) (A) (A)
                 (A) (A) (A) (A) (A) (A) (A) (A) (A) (A) (A) (A)
                 (A) (A) (A) (A) (A) (A) (A) (A) (A) (A) (A) (A)
                 (A) (A) (A) (A) (A) (A) (A) (A) (A) (A) (A) (A)
                 (A) (A) (A) (A) (A) (A) (A) (A) (A) (A) (A) (A)
                 (A) (A) (A) (A) (A) (A) (A) (A) (A) (A) (A) (A)
                 (A) (A) (A) (A) (A) (A) (A) (A) (A) (A) (A) (A)
                 (A) (A) (A) (A) (A) (A) (A) (A) (A) (A) (A) (A)
                 (A) (A) (A) (A) (A) (A) (A) (A) (A) (A) (A) (A)
                 (A) (A) (A) (A) (A) (A) (A) (A) (A) (A) (A) (A)
                 (A) (A) (A) (A) (A) (A) (A) (A) (A) (A) (A) (A)
                 (A) (A) (A) (A) (A) (A) (A) (A) (A) (A) (A) (A)
                 (A) (A) (A) (A) (A) (A) (A) (A) (A) (A) (A) (A)
                 (A) (A) (A) (A) (A) (A) (A) (A) (A) (A) (A) (A)
                 (A) (A) (A) (A) (A) (A) (A) (A) (A) (A) (A) (A)
                 (A) (A) (A) (A) (A) (A) (A) (A) (A) (A) (A) (A)
                 (A) (A) (A) (A) (A) (A) (A) (A) (A) (A) (A) (A)
                 (A) (A) (A) (A) (A) (A) (A) (A) (A) (A) (A) (A)
                 (A) (A) (A) (A) (A) (A) (A) (A) (A) (A) (A) (A)
                 (A) (A) (A) (A) (A) (A) (A) (A) (A) (A) (A) (A)
                 (A) (A) (A) (A) (A) (A) (A) (A) (A) (A) (A) (A)
                 (A) (A) (A) (A) (A) (A) (A) (A) (A) (A) (A) (A)
                 (A) (A) (A) (A) (A) (A) (A) (A) (A) (A) (A) (A)
                 (A) (A) (A) (A) (A) (A) (A) (A) (A) (A) (A) (A)
                 (A) (A) (A) (A) (A) (A) (A) (A) (A) (A) (A) (A)
                 (A) (A) (A) (A) (A) (A) (A) (A) (A) (A) (A) (A)
                 (A) (A) (A) (A) (A) (A) (A) (A) (A) (A) (A) (A)
                 (A) (A) (A) (A) (A) (A) (A) (A) (A) (A) (A) (A)
                 (A) (A) (A) (A) (A) (A) (A) (A) (A) (A) (A) (A)
                 (A) (A) (A) (A) (A) (A) (A) (A) (A) (A) (A) (A)
                 (A) (A) (A) (A) (A) (A) (A) (A) (A) (A) (A) (A)
                 (A) (A) (A) (A) (A) (A) (A) (A) (A) (A) (A) (A)
                 (A) (A) (A) (A) (A) (A) (A) (A) (A) (A) (A) (A)
                 (A) (A) (A) (A) (A) (A) (A) (A) (A) (A) (A) (A)
                 (A) (A) (A) (A) (A) (A) (A) (A) (A) (A) (A) (A)
                 (A) (A) (A) (A) (A) (A) (A) (A) (A) (A) (A) (A)
                 (A) (A) (A) (A) (A) (A) (A) (A) (A) (A) (A) (A)
                 (A) (A) (A) (A) (A) (A) (A) (A) (A) (A) (A) (A)
                 (A) (A) (A) (A) (A) (A) (A) (A) (A) (A) (A) (A)
                 (A) (A) (A) (A) (A) (A) (A) (A) (A) (A) (A) (A)
                 (A) (A) (A) (A) (A) (A) (A) (A) (A) (A) (A) (A)
                 (A) (A) (A) (A) (A) (A) (A) (A) (A) (A) (A) (A)
                 (A) (A) (A) (A) (A) (A) (A) (A) (A) (A) (A) (A)
                 (A) (A) (A) (A) (A) (A) (A) (A) (A) (A) (A) (A)
                 (A) (A) (A) (A) (A) (A) (A) (A) (A) (A) (A)
 The electronic state of the initial guess is 1-A.
 Leave Link  401 at Mon Feb  2 23:58:48 2015, MaxMem= 2147483648 cpu:     516.3
 (Enter /opt/g09/l502.exe)
 Closed shell SCF:
 Requested convergence on RMS density matrix=1.00D-08 within 128 cycles.
 Requested convergence on MAX density matrix=1.00D-06.
 Requested convergence on             energy=1.00D-06.
 No special actions if energy rises.
 Using DIIS extrapolation, IDIIS=  1040.
 Integral symmetry usage will be decided dynamically.
      1426202 words used for storage of precomputed grid.
 IEnd=    10529799 IEndB=    10529799 NGot=  2147483648 MDV=  2139982450
 LenX=  2139982450 LenY=  2136970490
 Fock matrices will be formed incrementally for  20 cycles.
 Integral accuracy reduced to 1.0D-05 until final iterations.

 Cycle   1  Pass 0  IDiag  1:
 FoFCou: FMM=T IPFlag=           0 FMFlag=      100000 FMFlg1=        2001
         NFxFlg=           0 DoJE=F BraDBF=F KetDBF=F FulRan=T
         Omega=  0.000000  0.000000  1.000000  0.000000  0.000000 ICntrl=       0 IOpCl=  0
         NMat0=    1 NMatS0=    1 NMatT0=    0 NMatD0=    1 NMtDS0=    0 NMtDT0=    0
         I1Cent=           0 NGrid=           0.
 Symmetry not used in FoFCou.
 FMM levels:  10  Number of levels for PrismC:   9
 E= -3946.70166499950    
 DIIS: error= 2.37D-02 at cycle   1 NSaved=   1.
 NSaved= 1 IEnMin= 1 EnMin= -3946.70166499950     IErMin= 1 ErrMin= 2.37D-02
 ErrMax= 2.37D-02 EMaxC= 1.00D-01 BMatC= 1.59D+00 BMatP= 1.59D+00
 IDIUse=3 WtCom= 7.63D-01 WtEn= 2.37D-01
 Coeff-Com:  0.100D+01
 Coeff-En:   0.100D+01
 Coeff:      0.100D+01
 Gap=     0.148 Goal=   None    Shift=    0.000
 GapD=    0.148 DampG=1.000 DampE=0.500 DampFc=0.5000 IDamp=-1.
 Damping current iteration by 5.00D-01
 RMSDP=2.21D-03 MaxDP=1.98D-01              OVMax= 2.02D-01

 Cycle   2  Pass 0  IDiag  1:
 RMSU=  7.40D-04    CP:  9.58D-01
 E= -3947.55685553834     Delta-E=       -0.855190538838 Rises=F Damp=T
 DIIS: error= 3.52D-03 at cycle   2 NSaved=   2.
 NSaved= 2 IEnMin= 2 EnMin= -3947.55685553834     IErMin= 2 ErrMin= 3.52D-03
 ErrMax= 3.52D-03 EMaxC= 1.00D-01 BMatC= 9.00D-02 BMatP= 1.59D+00
 IDIUse=3 WtCom= 9.65D-01 WtEn= 3.52D-02
 Coeff-Com:  0.267D-01 0.973D+00
 Coeff-En:   0.138D-01 0.986D+00
 Coeff:      0.262D-01 0.974D+00
 Gap=     0.132 Goal=   None    Shift=    0.000
 RMSDP=7.09D-04 MaxDP=1.00D-01 DE=-8.55D-01 OVMax= 1.54D-01

 Cycle   3  Pass 0  IDiag  1:
 RMSU=  4.42D-04    CP:  9.33D-01  1.24D+00
 E= -3948.40729918798     Delta-E=       -0.850443649637 Rises=F Damp=F
 DIIS: error= 5.02D-03 at cycle   3 NSaved=   3.
 NSaved= 3 IEnMin= 3 EnMin= -3948.40729918798     IErMin= 2 ErrMin= 3.52D-03
 ErrMax= 5.02D-03 EMaxC= 1.00D-01 BMatC= 1.12D-01 BMatP= 9.00D-02
 IDIUse=3 WtCom= 1.24D-01 WtEn= 8.76D-01
 Coeff-Com: -0.283D-01 0.546D+00 0.483D+00
 Coeff-En:   0.000D+00 0.000D+00 0.100D+01
 Coeff:     -0.350D-02 0.675D-01 0.936D+00
 Gap=     0.161 Goal=   None    Shift=    0.000
 RMSDP=6.72D-04 MaxDP=6.24D-02 DE=-8.50D-01 OVMax= 1.64D-01

 Cycle   4  Pass 0  IDiag  1:
 RMSU=  3.41D-04    CP:  9.35D-01  1.29D+00  2.56D-01
 E= -3948.09098441217     Delta-E=        0.316314775806 Rises=F Damp=F
 DIIS: error= 1.04D-02 at cycle   4 NSaved=   4.
 NSaved= 4 IEnMin= 3 EnMin= -3948.40729918798     IErMin= 2 ErrMin= 3.52D-03
 ErrMax= 1.04D-02 EMaxC= 1.00D-01 BMatC= 4.14D-01 BMatP= 9.00D-02
 IDIUse=2 WtCom= 0.00D+00 WtEn= 1.00D+00
 Coeff-En:   0.000D+00 0.000D+00 0.737D+00 0.263D+00
 Coeff:      0.000D+00 0.000D+00 0.737D+00 0.263D+00
 Gap=     0.139 Goal=   None    Shift=    0.000
 RMSDP=3.55D-04 MaxDP=3.00D-02 DE= 3.16D-01 OVMax= 8.95D-02

 Cycle   5  Pass 0  IDiag  1:
 RMSU=  5.60D-05    CP:  9.35D-01  1.25D+00  6.07D-01  4.53D-01
 E= -3948.49802100836     Delta-E=       -0.407036596189 Rises=F Damp=F
 DIIS: error= 2.45D-03 at cycle   5 NSaved=   5.
 NSaved= 5 IEnMin= 5 EnMin= -3948.49802100836     IErMin= 5 ErrMin= 2.45D-03
 ErrMax= 2.45D-03 EMaxC= 1.00D-01 BMatC= 2.42D-02 BMatP= 9.00D-02
 IDIUse=3 WtCom= 9.76D-01 WtEn= 2.45D-02
 Coeff-Com:  0.537D-02 0.217D-01 0.398D+00 0.911D-01 0.483D+00
 Coeff-En:   0.000D+00 0.000D+00 0.211D+00 0.000D+00 0.789D+00
 Coeff:      0.524D-02 0.212D-01 0.394D+00 0.889D-01 0.491D+00
 Gap=     0.133 Goal=   None    Shift=    0.000
 RMSDP=1.07D-04 MaxDP=1.19D-02 DE=-4.07D-01 OVMax= 2.43D-02

 Cycle   6  Pass 0  IDiag  1:
 RMSU=  2.30D-05    CP:  9.35D-01  1.24D+00  7.21D-01  3.25D-01  5.08D-01
 E= -3948.52120589556     Delta-E=       -0.023184887203 Rises=F Damp=F
 DIIS: error= 3.21D-04 at cycle   6 NSaved=   6.
 NSaved= 6 IEnMin= 6 EnMin= -3948.52120589556     IErMin= 6 ErrMin= 3.21D-04
 ErrMax= 3.21D-04 EMaxC= 1.00D-01 BMatC= 4.72D-04 BMatP= 2.42D-02
 IDIUse=3 WtCom= 9.97D-01 WtEn= 3.21D-03
 Coeff-Com:  0.264D-02-0.775D-02 0.117D+00-0.654D-02 0.299D+00 0.595D+00
 Coeff-En:   0.000D+00 0.000D+00 0.000D+00 0.000D+00 0.000D+00 0.100D+01
 Coeff:      0.263D-02-0.772D-02 0.117D+00-0.652D-02 0.298D+00 0.597D+00
 Gap=     0.133 Goal=   None    Shift=    0.000
 RMSDP=1.99D-05 MaxDP=1.43D-03 DE=-2.32D-02 OVMax= 4.94D-03

 Cycle   7  Pass 0  IDiag  1:
 RMSU=  8.15D-06    CP:  9.34D-01  1.24D+00  7.27D-01  3.24D-01  6.31D-01
                    CP:  6.26D-01
 E= -3948.52167352251     Delta-E=       -0.000467626945 Rises=F Damp=F
 DIIS: error= 1.76D-04 at cycle   7 NSaved=   7.
 NSaved= 7 IEnMin= 7 EnMin= -3948.52167352251     IErMin= 7 ErrMin= 1.76D-04
 ErrMax= 1.76D-04 EMaxC= 1.00D-01 BMatC= 7.88D-05 BMatP= 4.72D-04
 IDIUse=3 WtCom= 9.98D-01 WtEn= 1.76D-03
 Coeff-Com:  0.137D-02-0.604D-02 0.525D-01-0.110D-01 0.169D+00 0.399D+00
 Coeff-Com:  0.396D+00
 Coeff-En:   0.000D+00 0.000D+00 0.000D+00 0.000D+00 0.000D+00 0.641D-01
 Coeff-En:   0.936D+00
 Coeff:      0.137D-02-0.603D-02 0.524D-01-0.110D-01 0.168D+00 0.398D+00
 Coeff:      0.397D+00
 Gap=     0.133 Goal=   None    Shift=    0.000
 RMSDP=7.58D-06 MaxDP=6.53D-04 DE=-4.68D-04 OVMax= 2.19D-03

 Initial convergence to 1.0D-05 achieved.  Increase integral accuracy.
 Cycle   8  Pass 1  IDiag  1:
 E= -3948.52087542566     Delta-E=        0.000798096848 Rises=F Damp=F
 DIIS: error= 3.23D-04 at cycle   1 NSaved=   1.
 NSaved= 1 IEnMin= 1 EnMin= -3948.52087542566     IErMin= 1 ErrMin= 3.23D-04
 ErrMax= 3.23D-04 EMaxC= 1.00D-01 BMatC= 1.12D-04 BMatP= 1.12D-04
 IDIUse=3 WtCom= 9.97D-01 WtEn= 3.23D-03
 Coeff-Com:  0.100D+01
 Coeff-En:   0.100D+01
 Coeff:      0.100D+01
 Gap=     0.133 Goal=   None    Shift=    0.000
 RMSDP=7.58D-06 MaxDP=6.53D-04 DE= 7.98D-04 OVMax= 1.85D-03

 Cycle   9  Pass 1  IDiag  1:
 RMSU=  1.11D-04    CP:  9.99D-01
 E= -3948.52094062998     Delta-E=       -0.000065204324 Rises=F Damp=F
 DIIS: error= 1.34D-04 at cycle   2 NSaved=   2.
 NSaved= 2 IEnMin= 2 EnMin= -3948.52094062998     IErMin= 2 ErrMin= 1.34D-04
 ErrMax= 1.34D-04 EMaxC= 1.00D-01 BMatC= 3.14D-05 BMatP= 1.12D-04
 IDIUse=3 WtCom= 9.99D-01 WtEn= 1.34D-03
 Coeff-Com:  0.259D+00 0.741D+00
 Coeff-En:   0.000D+00 0.100D+01
 Coeff:      0.259D+00 0.741D+00
 Gap=     0.133 Goal=   None    Shift=    0.000
 RMSDP=1.11D-05 MaxDP=1.70D-03 DE=-6.52D-05 OVMax= 3.17D-03

 Cycle  10  Pass 1  IDiag  1:
 RMSU=  7.86D-06    CP:  9.99D-01  1.00D+00
 E= -3948.52087905864     Delta-E=        0.000061571343 Rises=F Damp=F
 DIIS: error= 2.29D-04 at cycle   3 NSaved=   3.
 NSaved= 3 IEnMin= 2 EnMin= -3948.52094062998     IErMin= 2 ErrMin= 1.34D-04
 ErrMax= 2.29D-04 EMaxC= 1.00D-01 BMatC= 8.54D-05 BMatP= 3.14D-05
 IDIUse=3 WtCom= 3.98D-01 WtEn= 6.02D-01
 Coeff-Com: -0.244D-03 0.623D+00 0.377D+00
 Coeff-En:   0.000D+00 0.672D+00 0.328D+00
 Coeff:     -0.970D-04 0.652D+00 0.348D+00
 Gap=     0.133 Goal=   None    Shift=    0.000
 RMSDP=6.25D-06 MaxDP=8.05D-04 DE= 6.16D-05 OVMax= 1.89D-03

 Cycle  11  Pass 1  IDiag  1:
 RMSU=  6.27D-07    CP:  9.99D-01  1.01D+00  4.48D-01
 E= -3948.52097437772     Delta-E=       -0.000095319083 Rises=F Damp=F
 DIIS: error= 2.20D-05 at cycle   4 NSaved=   4.
 NSaved= 4 IEnMin= 4 EnMin= -3948.52097437772     IErMin= 4 ErrMin= 2.20D-05
 ErrMax= 2.20D-05 EMaxC= 1.00D-01 BMatC= 1.57D-06 BMatP= 3.14D-05
 IDIUse=1 WtCom= 1.00D+00 WtEn= 0.00D+00
 Coeff-Com: -0.336D-02 0.402D+00 0.200D+00 0.402D+00
 Coeff:     -0.336D-02 0.402D+00 0.200D+00 0.402D+00
 Gap=     0.133 Goal=   None    Shift=    0.000
 RMSDP=9.11D-07 MaxDP=1.14D-04 DE=-9.53D-05 OVMax= 2.01D-04

 Cycle  12  Pass 1  IDiag  1:
 RMSU=  2.21D-07    CP:  9.99D-01  1.01D+00  3.80D-01  5.43D-01
 E= -3948.52097603929     Delta-E=       -0.000001661567 Rises=F Damp=F
 DIIS: error= 2.07D-06 at cycle   5 NSaved=   5.
 NSaved= 5 IEnMin= 5 EnMin= -3948.52097603929     IErMin= 5 ErrMin= 2.07D-06
 ErrMax= 2.07D-06 EMaxC= 1.00D-01 BMatC= 2.11D-08 BMatP= 1.57D-06
 IDIUse=1 WtCom= 1.00D+00 WtEn= 0.00D+00
 Coeff-Com: -0.204D-02 0.217D+00 0.105D+00 0.242D+00 0.438D+00
 Coeff:     -0.204D-02 0.217D+00 0.105D+00 0.242D+00 0.438D+00
 Gap=     0.133 Goal=   None    Shift=    0.000
 RMSDP=1.33D-07 MaxDP=1.07D-05 DE=-1.66D-06 OVMax= 3.20D-05

 Cycle  13  Pass 1  IDiag  1:
 RMSU=  7.02D-08    CP:  9.99D-01  1.01D+00  3.79D-01  5.77D-01  7.33D-01
 E= -3948.52097605951     Delta-E=       -0.000000020220 Rises=F Damp=F
 DIIS: error= 9.54D-07 at cycle   6 NSaved=   6.
 NSaved= 6 IEnMin= 6 EnMin= -3948.52097605951     IErMin= 6 ErrMin= 9.54D-07
 ErrMax= 9.54D-07 EMaxC= 1.00D-01 BMatC= 3.13D-09 BMatP= 2.11D-08
 IDIUse=1 WtCom= 1.00D+00 WtEn= 0.00D+00
 Coeff-Com: -0.886D-03 0.890D-01 0.425D-01 0.106D+00 0.294D+00 0.469D+00
 Coeff:     -0.886D-03 0.890D-01 0.425D-01 0.106D+00 0.294D+00 0.469D+00
 Gap=     0.133 Goal=   None    Shift=    0.000
 RMSDP=4.89D-08 MaxDP=4.16D-06 DE=-2.02D-08 OVMax= 1.29D-05

 Cycle  14  Pass 1  IDiag  1:
 RMSU=  2.31D-08    CP:  9.99D-01  1.01D+00  3.79D-01  5.74D-01  7.90D-01
                    CP:  6.85D-01
 E= -3948.52097606274     Delta-E=       -0.000000003231 Rises=F Damp=F
 DIIS: error= 1.77D-07 at cycle   7 NSaved=   7.
 NSaved= 7 IEnMin= 7 EnMin= -3948.52097606274     IErMin= 7 ErrMin= 1.77D-07
 ErrMax= 1.77D-07 EMaxC= 1.00D-01 BMatC= 1.97D-10 BMatP= 3.13D-09
 IDIUse=1 WtCom= 1.00D+00 WtEn= 0.00D+00
 Coeff-Com: -0.200D-03 0.184D-01 0.871D-02 0.231D-01 0.954D-01 0.252D+00
 Coeff-Com:  0.603D+00
 Coeff:     -0.200D-03 0.184D-01 0.871D-02 0.231D-01 0.954D-01 0.252D+00
 Coeff:      0.603D+00
 Gap=     0.133 Goal=   None    Shift=    0.000
 RMSDP=1.26D-08 MaxDP=2.49D-06 DE=-3.23D-09 OVMax= 2.83D-06

 Cycle  15  Pass 1  IDiag  1:
 RMSU=  5.95D-09    CP:  9.99D-01  1.01D+00  3.80D-01  5.75D-01  7.93D-01
                    CP:  7.25D-01  7.67D-01
 E= -3948.52097606258     Delta-E=        0.000000000156 Rises=F Damp=F
 DIIS: error= 6.75D-08 at cycle   8 NSaved=   8.
 NSaved= 8 IEnMin= 7 EnMin= -3948.52097606274     IErMin= 8 ErrMin= 6.75D-08
 ErrMax= 6.75D-08 EMaxC= 1.00D-01 BMatC= 2.23D-11 BMatP= 1.97D-10
 IDIUse=1 WtCom= 1.00D+00 WtEn= 0.00D+00
 Coeff-Com:  0.165D-04-0.255D-02-0.124D-02-0.267D-02 0.825D-02 0.686D-01
 Coeff-Com:  0.314D+00 0.616D+00
 Coeff:      0.165D-04-0.255D-02-0.124D-02-0.267D-02 0.825D-02 0.686D-01
 Coeff:      0.314D+00 0.616D+00
 Gap=     0.133 Goal=   None    Shift=    0.000
 RMSDP=4.16D-09 MaxDP=4.12D-07 DE= 1.56D-10 OVMax= 1.05D-06

 SCF Done:  E(RB3LYP) =  -3948.52097606     A.U. after   15 cycles
             Convg  =    0.4157D-08             -V/T =  2.0065
 KE= 3.922844581703D+03 PE=-4.166849937798D+04 EE= 1.755459971337D+04
 Leave Link  502 at Tue Feb  3 00:21:30 2015, MaxMem= 2147483648 cpu:   32649.0
 (Enter /opt/g09/l601.exe)
 Copying SCF densities to generalized density rwf, IOpCl= 0 IROHF=0.

 **********************************************************************

            Population analysis using the SCF density.

 **********************************************************************

 Orbital symmetries:
       Occupied  (A) (A) (A) (A) (A) (A) (A) (A) (A) (A) (A) (A)
                 (A) (A) (A) (A) (A) (A) (A) (A) (A) (A) (A) (A)
                 (A) (A) (A) (A) (A) (A) (A) (A) (A) (A) (A) (A)
                 (A) (A) (A) (A) (A) (A) (A) (A) (A) (A) (A) (A)
                 (A) (A) (A) (A) (A) (A) (A) (A) (A) (A) (A) (A)
                 (A) (A) (A) (A) (A) (A) (A) (A) (A) (A) (A) (A)
                 (A) (A) (A) (A) (A) (A) (A) (A) (A) (A) (A) (A)
                 (A) (A) (A) (A) (A) (A) (A) (A) (A) (A) (A) (A)
                 (A) (A) (A) (A) (A) (A) (A) (A) (A) (A) (A) (A)
                 (A) (A) (A) (A) (A) (A) (A) (A) (A) (A) (A) (A)
                 (A) (A) (A) (A) (A) (A) (A) (A) (A) (A) (A) (A)
                 (A) (A) (A) (A) (A) (A) (A) (A) (A) (A) (A) (A)
                 (A) (A) (A) (A) (A) (A) (A) (A) (A) (A) (A) (A)
                 (A) (A) (A) (A) (A) (A) (A) (A) (A) (A) (A) (A)
                 (A) (A) (A) (A) (A) (A) (A) (A) (A) (A) (A) (A)
                 (A) (A) (A) (A) (A) (A) (A) (A) (A) (A) (A) (A)
                 (A) (A) (A) (A) (A) (A) (A) (A) (A) (A) (A) (A)
                 (A) (A) (A) (A) (A) (A) (A) (A) (A) (A) (A) (A)
                 (A) (A) (A) (A) (A) (A) (A) (A) (A) (A) (A) (A)
                 (A) (A) (A) (A) (A) (A) (A) (A) (A) (A) (A) (A)
                 (A) (A) (A) (A) (A) (A) (A) (A) (A) (A) (A) (A)
                 (A) (A) (A) (A) (A) (A) (A) (A) (A) (A) (A) (A)
                 (A) (A) (A) (A) (A) (A) (A) (A) (A) (A) (A) (A)
                 (A) (A) (A) (A) (A) (A) (A) (A) (A) (A) (A) (A)
                 (A) (A) (A) (A) (A) (A) (A) (A) (A) (A) (A) (A)
                 (A) (A) (A) (A) (A) (A) (A) (A) (A) (A) (A) (A)
                 (A) (A) (A) (A) (A) (A) (A) (A) (A) (A) (A)
       Virtual   (A) (A) (A) (A) (A) (A) (A) (A) (A) (A) (A) (A)
                 (A) (A) (A) (A) (A) (A) (A) (A) (A) (A) (A) (A)
                 (A) (A) (A) (A) (A) (A) (A) (A) (A) (A) (A) (A)
                 (A) (A) (A) (A) (A) (A) (A) (A) (A) (A) (A) (A)
                 (A) (A) (A) (A) (A) (A) (A) (A) (A) (A) (A) (A)
                 (A) (A) (A) (A) (A) (A) (A) (A) (A) (A) (A) (A)
                 (A) (A) (A) (A) (A) (A) (A) (A) (A) (A) (A) (A)
                 (A) (A) (A) (A) (A) (A) (A) (A) (A) (A) (A) (A)
                 (A) (A) (A) (A) (A) (A) (A) (A) (A) (A) (A) (A)
                 (A) (A) (A) (A) (A) (A) (A) (A) (A) (A) (A) (A)
                 (A) (A) (A) (A) (A) (A) (A) (A) (A) (A) (A) (A)
                 (A) (A) (A) (A) (A) (A) (A) (A) (A) (A) (A) (A)
                 (A) (A) (A) (A) (A) (A) (A) (A) (A) (A) (A) (A)
                 (A) (A) (A) (A) (A) (A) (A) (A) (A) (A) (A) (A)
                 (A) (A) (A) (A) (A) (A) (A) (A) (A) (A) (A) (A)
                 (A) (A) (A) (A) (A) (A) (A) (A) (A) (A) (A) (A)
                 (A) (A) (A) (A) (A) (A) (A) (A) (A) (A) (A) (A)
                 (A) (A) (A) (A) (A) (A) (A) (A) (A) (A) (A) (A)
                 (A) (A) (A) (A) (A) (A) (A) (A) (A) (A) (A) (A)
                 (A) (A) (A) (A) (A) (A) (A) (A) (A) (A) (A) (A)
                 (A) (A) (A) (A) (A) (A) (A) (A) (A) (A) (A) (A)
                 (A) (A) (A) (A) (A) (A) (A) (A) (A) (A) (A) (A)
                 (A) (A) (A) (A) (A) (A) (A) (A) (A) (A) (A) (A)
                 (A) (A) (A) (A) (A) (A) (A) (A) (A) (A) (A) (A)
                 (A) (A) (A) (A) (A) (A) (A) (A) (A) (A) (A) (A)
                 (A) (A) (A) (A) (A) (A) (A) (A) (A) (A) (A) (A)
                 (A) (A) (A) (A) (A) (A) (A) (A) (A) (A) (A) (A)
                 (A) (A) (A) (A) (A) (A) (A) (A) (A) (A) (A) (A)
                 (A) (A) (A) (A) (A) (A) (A) (A) (A) (A) (A) (A)
                 (A) (A) (A) (A) (A) (A) (A) (A) (A) (A) (A) (A)
                 (A) (A) (A) (A) (A) (A) (A) (A) (A) (A) (A) (A)
                 (A) (A) (A) (A) (A) (A) (A) (A) (A) (A) (A) (A)
                 (A) (A) (A) (A) (A) (A) (A) (A) (A) (A) (A) (A)
                 (A) (A) (A) (A) (A) (A) (A) (A) (A) (A) (A) (A)
                 (A) (A) (A) (A) (A) (A) (A) (A) (A) (A) (A) (A)
                 (A) (A) (A) (A) (A) (A) (A) (A) (A) (A) (A) (A)
                 (A) (A) (A) (A) (A) (A) (A) (A) (A) (A) (A) (A)
                 (A) (A) (A) (A) (A) (A) (A) (A) (A) (A) (A) (A)
                 (A) (A) (A) (A) (A) (A) (A) (A) (A) (A) (A) (A)
                 (A) (A) (A) (A) (A) (A) (A) (A) (A) (A) (A) (A)
                 (A) (A) (A) (A) (A) (A) (A) (A) (A) (A) (A) (A)
                 (A) (A) (A) (A) (A) (A) (A) (A) (A) (A) (A) (A)
                 (A) (A) (A) (A) (A) (A) (A) (A) (A) (A) (A) (A)
                 (A) (A) (A) (A) (A) (A) (A) (A) (A) (A) (A) (A)
                 (A) (A) (A) (A) (A) (A) (A) (A) (A) (A) (A) (A)
                 (A) (A) (A) (A) (A) (A) (A) (A) (A) (A) (A) (A)
                 (A) (A) (A) (A) (A) (A) (A) (A) (A) (A) (A) (A)
                 (A) (A) (A) (A) (A) (A) (A) (A) (A) (A) (A) (A)
                 (A) (A) (A) (A) (A) (A) (A) (A) (A) (A) (A) (A)
                 (A) (A) (A) (A) (A) (A) (A) (A) (A) (A) (A) (A)
                 (A) (A) (A) (A) (A) (A) (A) (A) (A) (A) (A) (A)
                 (A) (A) (A) (A) (A) (A) (A) (A) (A) (A) (A) (A)
                 (A) (A) (A) (A) (A) (A) (A) (A) (A) (A) (A) (A)
                 (A) (A) (A) (A) (A) (A) (A) (A) (A) (A) (A) (A)
                 (A) (A) (A) (A) (A) (A) (A) (A) (A) (A) (A) (A)
                 (A) (A) (A) (A) (A) (A) (A) (A) (A) (A) (A) (A)
                 (A) (A) (A) (A) (A) (A) (A) (A) (A) (A) (A) (A)
                 (A) (A) (A) (A) (A) (A) (A) (A) (A) (A) (A) (A)
                 (A) (A) (A) (A) (A) (A) (A) (A) (A) (A) (A) (A)
                 (A) (A) (A) (A) (A) (A) (A) (A) (A) (A) (A) (A)
                 (A) (A) (A) (A) (A) (A) (A) (A) (A) (A) (A) (A)
                 (A) (A) (A) (A) (A) (A) (A) (A) (A) (A) (A) (A)
                 (A) (A) (A) (A) (A) (A) (A) (A) (A) (A) (A) (A)
                 (A) (A) (A) (A) (A) (A) (A) (A) (A) (A) (A) (A)
                 (A) (A) (A) (A) (A) (A) (A) (A) (A) (A) (A) (A)
                 (A) (A) (A) (A) (A) (A) (A) (A) (A) (A) (A) (A)
                 (A) (A) (A) (A) (A) (A) (A) (A) (A) (A) (A) (A)
                 (A) (A) (A) (A) (A) (A) (A) (A) (A) (A) (A) (A)
                 (A) (A) (A) (A) (A) (A) (A) (A) (A) (A) (A) (A)
                 (A) (A) (A) (A) (A) (A) (A) (A) (A) (A) (A) (A)
                 (A) (A) (A) (A) (A) (A) (A) (A) (A) (A) (A) (A)
                 (A) (A) (A) (A) (A) (A) (A) (A) (A) (A) (A) (A)
                 (A) (A) (A) (A) (A) (A) (A) (A) (A) (A) (A) (A)
                 (A) (A) (A) (A) (A) (A) (A) (A) (A) (A) (A) (A)
                 (A) (A) (A) (A) (A) (A) (A) (A) (A) (A) (A) (A)
                 (A) (A) (A) (A) (A) (A) (A) (A) (A) (A) (A) (A)
                 (A) (A) (A) (A) (A) (A) (A) (A) (A) (A) (A) (A)
                 (A) (A) (A) (A) (A) (A) (A) (A) (A) (A) (A) (A)
                 (A) (A) (A) (A) (A) (A) (A) (A) (A) (A) (A) (A)
                 (A) (A) (A) (A) (A) (A) (A) (A) (A) (A) (A) (A)
                 (A) (A) (A) (A) (A) (A) (A) (A) (A) (A) (A) (A)
                 (A) (A) (A) (A) (A) (A) (A) (A) (A) (A) (A) (A)
                 (A) (A) (A) (A) (A) (A) (A) (A) (A) (A) (A) (A)
                 (A) (A) (A) (A) (A) (A) (A) (A) (A) (A) (A) (A)
                 (A) (A) (A) (A) (A) (A) (A) (A) (A) (A) (A) (A)
                 (A) (A) (A) (A) (A) (A) (A) (A) (A) (A) (A) (A)
                 (A) (A) (A) (A) (A) (A) (A) (A) (A) (A) (A) (A)
                 (A) (A) (A) (A) (A) (A) (A) (A) (A) (A) (A) (A)
                 (A) (A) (A) (A) (A) (A) (A) (A) (A) (A) (A) (A)
                 (A) (A) (A) (A) (A) (A) (A) (A) (A) (A) (A) (A)
                 (A) (A) (A) (A) (A) (A) (A) (A) (A) (A) (A) (A)
                 (A) (A) (A) (A) (A) (A) (A) (A) (A) (A) (A) (A)
                 (A) (A) (A) (A) (A) (A) (A) (A) (A) (A) (A) (A)
                 (A) (A) (A) (A) (A) (A) (A) (A) (A) (A) (A) (A)
                 (A) (A) (A) (A) (A) (A) (A) (A) (A) (A) (A) (A)
                 (A) (A) (A) (A) (A) (A) (A) (A) (A) (A) (A) (A)
                 (A) (A) (A) (A) (A) (A) (A) (A) (A) (A) (A) (A)
                 (A) (A) (A) (A) (A) (A) (A) (A) (A) (A) (A) (A)
                 (A) (A) (A) (A) (A) (A) (A) (A) (A) (A) (A) (A)
                 (A) (A) (A) (A) (A) (A) (A) (A) (A) (A) (A) (A)
                 (A) (A) (A) (A) (A) (A) (A) (A) (A) (A) (A) (A)
                 (A) (A) (A) (A) (A) (A) (A) (A) (A) (A) (A) (A)
                 (A) (A) (A) (A) (A) (A) (A) (A) (A) (A) (A) (A)
                 (A) (A) (A) (A) (A) (A) (A) (A) (A) (A) (A) (A)
                 (A) (A) (A) (A) (A) (A) (A) (A) (A) (A) (A) (A)
                 (A) (A) (A) (A) (A) (A) (A) (A) (A) (A) (A) (A)
                 (A) (A) (A) (A) (A) (A) (A) (A) (A) (A) (A) (A)
                 (A) (A) (A) (A) (A) (A) (A) (A) (A) (A) (A) (A)
                 (A) (A) (A) (A) (A) (A) (A) (A) (A) (A) (A) (A)
                 (A) (A) (A) (A) (A) (A) (A) (A) (A) (A) (A)
 The electronic state is 1-A.
 Alpha  occ. eigenvalues --  -19.17033 -19.16789 -19.16776 -19.16772 -19.16595
 Alpha  occ. eigenvalues --  -19.16408 -19.16377 -19.16367 -14.35185 -14.35178
 Alpha  occ. eigenvalues --  -14.35108 -14.35082 -10.24449 -10.24315 -10.24209
 Alpha  occ. eigenvalues --  -10.24199 -10.24194 -10.24184 -10.24078 -10.24075
 Alpha  occ. eigenvalues --  -10.24055 -10.23978 -10.23963 -10.23949 -10.23949
 Alpha  occ. eigenvalues --  -10.23697 -10.23660 -10.23636 -10.22476 -10.22373
 Alpha  occ. eigenvalues --  -10.22325 -10.22285 -10.22188 -10.22170 -10.22152
 Alpha  occ. eigenvalues --  -10.22149 -10.21959 -10.21819 -10.21805 -10.21704
 Alpha  occ. eigenvalues --  -10.20705 -10.18893 -10.18846 -10.18837 -10.18706
 Alpha  occ. eigenvalues --  -10.18703 -10.18701 -10.18695 -10.18667 -10.18666
 Alpha  occ. eigenvalues --  -10.18664 -10.18662 -10.18647 -10.18643 -10.18624
 Alpha  occ. eigenvalues --  -10.18613 -10.18609 -10.18585 -10.18538 -10.18469
 Alpha  occ. eigenvalues --  -10.18377 -10.18370 -10.18332 -10.18332 -10.18313
 Alpha  occ. eigenvalues --  -10.18313 -10.18295 -10.18273 -10.18248 -10.18217
 Alpha  occ. eigenvalues --  -10.18216 -10.18142 -10.18136 -10.18053 -10.18049
 Alpha  occ. eigenvalues --  -10.17958 -10.17955 -10.17952 -10.17937 -10.17864
 Alpha  occ. eigenvalues --  -10.17850 -10.17785 -10.17647 -10.17605 -10.17559
 Alpha  occ. eigenvalues --  -10.17424 -10.17408 -10.17222 -10.17216 -10.17213
 Alpha  occ. eigenvalues --  -10.17182 -10.17147 -10.17142  -1.06679  -1.06438
 Alpha  occ. eigenvalues --   -1.06434  -1.06429  -1.06259  -1.06054  -1.06032
 Alpha  occ. eigenvalues --   -1.06027  -0.95928  -0.95918  -0.95856  -0.95813
 Alpha  occ. eigenvalues --   -0.89557  -0.86658  -0.85264  -0.85173  -0.85111
 Alpha  occ. eigenvalues --   -0.85080  -0.84610  -0.84557  -0.83867  -0.83635
 Alpha  occ. eigenvalues --   -0.82596  -0.82577  -0.80034  -0.77938  -0.76700
 Alpha  occ. eigenvalues --   -0.76213  -0.75985  -0.75880  -0.75778  -0.75293
 Alpha  occ. eigenvalues --   -0.75233  -0.75089  -0.75075  -0.74979  -0.74938
 Alpha  occ. eigenvalues --   -0.74328  -0.74275  -0.74143  -0.74033  -0.73987
 Alpha  occ. eigenvalues --   -0.73798  -0.73567  -0.72507  -0.72396  -0.70811
 Alpha  occ. eigenvalues --   -0.70636  -0.69805  -0.69716  -0.69160  -0.68967
 Alpha  occ. eigenvalues --   -0.68629  -0.68559  -0.67909  -0.67575  -0.67445
 Alpha  occ. eigenvalues --   -0.63992  -0.63296  -0.62517  -0.62258  -0.61962
 Alpha  occ. eigenvalues --   -0.61615  -0.61154  -0.61113  -0.60832  -0.60536
 Alpha  occ. eigenvalues --   -0.60467  -0.59592  -0.59300  -0.58997  -0.58965
 Alpha  occ. eigenvalues --   -0.58689  -0.58587  -0.58203  -0.57909  -0.57872
 Alpha  occ. eigenvalues --   -0.56335  -0.56131  -0.56041  -0.55336  -0.53867
 Alpha  occ. eigenvalues --   -0.53824  -0.53698  -0.53566  -0.53320  -0.53190
 Alpha  occ. eigenvalues --   -0.52976  -0.52562  -0.51858  -0.51554  -0.51278
 Alpha  occ. eigenvalues --   -0.50196  -0.49979  -0.49729  -0.49166  -0.49118
 Alpha  occ. eigenvalues --   -0.48933  -0.48859  -0.48160  -0.48042  -0.47963
 Alpha  occ. eigenvalues --   -0.47918  -0.47783  -0.47623  -0.47372  -0.47260
 Alpha  occ. eigenvalues --   -0.47013  -0.46924  -0.46845  -0.46730  -0.46660
 Alpha  occ. eigenvalues --   -0.46655  -0.46634  -0.46513  -0.46373  -0.46269
 Alpha  occ. eigenvalues --   -0.46259  -0.46230  -0.45769  -0.45531  -0.44755
 Alpha  occ. eigenvalues --   -0.44628  -0.44544  -0.44522  -0.43752  -0.43632
 Alpha  occ. eigenvalues --   -0.43375  -0.43309  -0.43210  -0.42923  -0.42917
 Alpha  occ. eigenvalues --   -0.42761  -0.42597  -0.42381  -0.42362  -0.42291
 Alpha  occ. eigenvalues --   -0.42226  -0.42075  -0.41979  -0.41797  -0.41679
 Alpha  occ. eigenvalues --   -0.41584  -0.41471  -0.41270  -0.41083  -0.40959
 Alpha  occ. eigenvalues --   -0.40814  -0.40719  -0.40278  -0.40126  -0.39569
 Alpha  occ. eigenvalues --   -0.39434  -0.39170  -0.38830  -0.38451  -0.38019
 Alpha  occ. eigenvalues --   -0.37860  -0.37819  -0.37747  -0.37667  -0.37515
 Alpha  occ. eigenvalues --   -0.37492  -0.37423  -0.37111  -0.36811  -0.36774
 Alpha  occ. eigenvalues --   -0.36624  -0.36535  -0.36468  -0.36441  -0.36367
 Alpha  occ. eigenvalues --   -0.36327  -0.36258  -0.36016  -0.35972  -0.35728
 Alpha  occ. eigenvalues --   -0.35644  -0.35307  -0.35170  -0.35064  -0.34867
 Alpha  occ. eigenvalues --   -0.34023  -0.33651  -0.33340  -0.33073  -0.33010
 Alpha  occ. eigenvalues --   -0.32936  -0.32816  -0.32670  -0.32605  -0.32567
 Alpha  occ. eigenvalues --   -0.32549  -0.32454  -0.32448  -0.32404  -0.32249
 Alpha  occ. eigenvalues --   -0.31982  -0.31961  -0.31911  -0.31820  -0.31609
 Alpha  occ. eigenvalues --   -0.30232  -0.29930  -0.28550  -0.28251  -0.26602
 Alpha  occ. eigenvalues --   -0.26513  -0.26203  -0.25640  -0.25453  -0.25269
 Alpha  occ. eigenvalues --   -0.25233  -0.24247  -0.24212  -0.24186  -0.24175
 Alpha  occ. eigenvalues --   -0.23746  -0.23603  -0.23380  -0.22471  -0.21940
 Alpha  occ. eigenvalues --   -0.21689  -0.21616  -0.21524  -0.21421  -0.18264
 Alpha  occ. eigenvalues --   -0.18216  -0.16582  -0.16460
 Alpha virt. eigenvalues --   -0.03183  -0.03106  -0.02015  -0.01903  -0.01452
 Alpha virt. eigenvalues --   -0.01156  -0.00675  -0.00595  -0.00477  -0.00380
 Alpha virt. eigenvalues --   -0.00152  -0.00046   0.00530   0.00940   0.01179
 Alpha virt. eigenvalues --    0.01386   0.01409   0.01511   0.01907   0.02260
 Alpha virt. eigenvalues --    0.03241   0.03279   0.05506   0.05719   0.05881
 Alpha virt. eigenvalues --    0.06131   0.06269   0.06391   0.06527   0.06743
 Alpha virt. eigenvalues --    0.06837   0.07075   0.07408   0.07495   0.07814
 Alpha virt. eigenvalues --    0.07981   0.08181   0.08484   0.08598   0.08751
 Alpha virt. eigenvalues --    0.09528   0.09674   0.09966   0.10154   0.10177
 Alpha virt. eigenvalues --    0.10501   0.10911   0.11264   0.11329   0.11514
 Alpha virt. eigenvalues --    0.11574   0.11771   0.11980   0.11994   0.12032
 Alpha virt. eigenvalues --    0.12259   0.12282   0.12307   0.12374   0.12472
 Alpha virt. eigenvalues --    0.12588   0.12671   0.12697   0.12736   0.12820
 Alpha virt. eigenvalues --    0.12907   0.12938   0.13137   0.13173   0.13206
 Alpha virt. eigenvalues --    0.13257   0.13293   0.13361   0.13369   0.13451
 Alpha virt. eigenvalues --    0.13492   0.13514   0.13576   0.13677   0.13804
 Alpha virt. eigenvalues --    0.13891   0.13950   0.14046   0.14235   0.14413
 Alpha virt. eigenvalues --    0.14725   0.14774   0.15067   0.15122   0.15141
 Alpha virt. eigenvalues --    0.15227   0.15349   0.15431   0.15523   0.16194
 Alpha virt. eigenvalues --    0.16285   0.16374   0.16514   0.16581   0.16621
 Alpha virt. eigenvalues --    0.16704   0.16798   0.16881   0.17322   0.17589
 Alpha virt. eigenvalues --    0.17785   0.17917   0.18227   0.18435   0.18579
 Alpha virt. eigenvalues --    0.18646   0.19055   0.19564   0.19613   0.19889
 Alpha virt. eigenvalues --    0.20309   0.21383   0.21695   0.23026   0.23138
 Alpha virt. eigenvalues --    0.23616   0.23701   0.23816   0.24058   0.24163
 Alpha virt. eigenvalues --    0.24285   0.24365   0.24628   0.25064   0.25229
 Alpha virt. eigenvalues --    0.25752   0.26120   0.26348   0.26668   0.26838
 Alpha virt. eigenvalues --    0.27206   0.27462   0.27624   0.27808   0.27981
 Alpha virt. eigenvalues --    0.28191   0.28419   0.28457   0.28556   0.28614
 Alpha virt. eigenvalues --    0.28891   0.29007   0.29150   0.29212   0.29406
 Alpha virt. eigenvalues --    0.29760   0.29923   0.30573   0.30786   0.31216
 Alpha virt. eigenvalues --    0.31843   0.32107   0.32298   0.32686   0.32978
 Alpha virt. eigenvalues --    0.33190   0.33278   0.33353   0.34246   0.34539
 Alpha virt. eigenvalues --    0.34859   0.34998   0.35143   0.35247   0.35676
 Alpha virt. eigenvalues --    0.36358   0.36639   0.36924   0.37167   0.37367
 Alpha virt. eigenvalues --    0.37626   0.37932   0.38279   0.38350   0.38858
 Alpha virt. eigenvalues --    0.39172   0.39616   0.40166   0.40236   0.40707
[...]
 Alpha virt. eigenvalues --    1.79511   1.79625   1.79833   1.79908   1.80038
 Alpha virt. eigenvalues --    1.80089   1.80325   1.80422   1.80533   1.80553
 Alpha virt. eigenvalues --    1.80797   1.80924   1.80972   1.81107   1.81374
 Alpha virt. eigenvalues --    1.81805   1.81935   1.82030   1.82246   1.82526
 Alpha virt. eigenvalues --    1.82600   1.82852   1.82985   1.83464   1.83653
 Alpha virt. eigenvalues --    1.83860   1.83884   1.84248   1.84716   1.84851
 Alpha virt. eigenvalues --    1.85032   1.85466   1.85669   1.86095   1.86107
 Alpha virt. eigenvalues --    1.86250   1.86511   1.86567   1.86709   1.86827
 Alpha virt. eigenvalues --    1.86954   1.87021   1.87222   1.87290   1.87444
 Alpha virt. eigenvalues --    1.87707   1.87813   1.87872   1.87998   1.88252
 Alpha virt. eigenvalues --    1.88366   1.88679   1.88771   1.89067   1.89196
 Alpha virt. eigenvalues --    1.89224   1.89423   1.89661   1.89825   1.90158
 Alpha virt. eigenvalues --    1.90395   1.90542   1.90819   1.91050   1.91401
 Alpha virt. eigenvalues --    1.91478   1.91689   1.92108   1.92586   1.92906
 Alpha virt. eigenvalues --    1.93472   1.93689   1.94086   1.94321   1.94790
 Alpha virt. eigenvalues --    1.95030   1.95102   1.95540   1.95908   1.96117
 Alpha virt. eigenvalues --    1.96358   1.96687   1.97211   1.97497   1.97721
 Alpha virt. eigenvalues --    1.97741   1.98106   1.98575   1.98626   1.98872
 Alpha virt. eigenvalues --    1.99194   1.99387   1.99509   2.00079   2.00320
 Alpha virt. eigenvalues --    2.00507   2.00703   2.00927   2.01268   2.01440
 Alpha virt. eigenvalues --    2.01764   2.02181   2.02352   2.02561   2.02777
 Alpha virt. eigenvalues --    2.03096   2.03368   2.03653   2.03733   2.03966
 Alpha virt. eigenvalues --    2.04119   2.04450   2.04626   2.04879   2.05281
 Alpha virt. eigenvalues --    2.05407   2.05543   2.05746   2.05892   2.05925
 Alpha virt. eigenvalues --    2.06064   2.06221   2.06376   2.06430   2.06760
 Alpha virt. eigenvalues --    2.06845   2.06905   2.06968   2.07032   2.07184
 Alpha virt. eigenvalues --    2.07237   2.07364   2.07514   2.07895   2.08283
 Alpha virt. eigenvalues --    2.08678   2.08809   2.09344   2.09883   2.10175
 Alpha virt. eigenvalues --    2.10345   2.10675   2.10761   2.11409   2.12090
 Alpha virt. eigenvalues --    2.12373   2.12806   2.12945   2.13625   2.13814
 Alpha virt. eigenvalues --    2.14223   2.14364   2.14952   2.14970   2.15230
 Alpha virt. eigenvalues --    2.15502   2.15890   2.16119   2.16408   2.16748
 Alpha virt. eigenvalues --    2.16814   2.16943   2.17006   2.17129   2.17593
 Alpha virt. eigenvalues --    2.17804   2.17890   2.18226   2.18601   2.18981
 Alpha virt. eigenvalues --    2.19334   2.19755   2.20304   2.20792   2.20816
 Alpha virt. eigenvalues --    2.20966   2.21142   2.21246   2.21794   2.22166
 Alpha virt. eigenvalues --    2.22430   2.22615   2.22816   2.22856   2.23104
 Alpha virt. eigenvalues --    2.23459   2.23590   2.23718   2.24088   2.24324
 Alpha virt. eigenvalues --    2.24773   2.24875   2.25150   2.25358   2.25859
 Alpha virt. eigenvalues --    2.26023   2.26271   2.26299   2.26577   2.26833
 Alpha virt. eigenvalues --    2.27053   2.27318   2.27408   2.27579   2.27916
 Alpha virt. eigenvalues --    2.28421   2.28834   2.28869   2.29169   2.29712
 Alpha virt. eigenvalues --    2.30118   2.30460   2.31948   2.33007   2.33749
 Alpha virt. eigenvalues --    2.34155   2.36278   2.38617   2.38827   2.39103
 Alpha virt. eigenvalues --    2.39115   2.39303   2.39335   2.39358   2.39431
 Alpha virt. eigenvalues --    2.39603   2.39934   2.39956   2.40583   2.40988
 Alpha virt. eigenvalues --    2.41624   2.41843   2.41962   2.42366   2.42614
 Alpha virt. eigenvalues --    2.43003   2.43381   2.43434   2.43585   2.43988
 Alpha virt. eigenvalues --    2.44008   2.44196   2.44268   2.44331   2.44512
 Alpha virt. eigenvalues --    2.44648   2.44748   2.44968   2.45493   2.46063
 Alpha virt. eigenvalues --    2.46414   2.46672   2.47072   2.47828   2.48142
 Alpha virt. eigenvalues --    2.48201   2.48610   2.48882   2.48988   2.49336
 Alpha virt. eigenvalues --    2.49448   2.49657   2.49732   2.49871   2.50081
 Alpha virt. eigenvalues --    2.50138   2.50233   2.50350   2.50550   2.52294
 Alpha virt. eigenvalues --    2.52777   2.53361   2.53891   2.54507   2.54983
 Alpha virt. eigenvalues --    2.55819   2.56091   2.56439   2.56635   2.57438
 Alpha virt. eigenvalues --    2.57794   2.58758   2.59243   2.59634   2.59788
 Alpha virt. eigenvalues --    2.61897   2.62380   2.62900   2.63704   2.63821
 Alpha virt. eigenvalues --    2.64470   2.65014   2.65223   2.65328   2.65528
 Alpha virt. eigenvalues --    2.65924   2.66235   2.66386   2.66998   2.67591
 Alpha virt. eigenvalues --    2.67810   2.68399   2.68806   2.69011   2.69259
 Alpha virt. eigenvalues --    2.70098   2.71047   2.71660   2.71949   2.72801
 Alpha virt. eigenvalues --    2.73018   2.74221   2.74661   2.75362   2.76748
 Alpha virt. eigenvalues --    2.77795   2.78178   2.78720   2.79862   2.80221
 Alpha virt. eigenvalues --    2.80610   2.80707   2.81186   2.81275   2.81621
 Alpha virt. eigenvalues --    2.84663   2.85162   2.85735   2.86013   2.86330
 Alpha virt. eigenvalues --    2.86453   2.86597   2.87766   2.87971   2.88047
 Alpha virt. eigenvalues --    2.88092   2.88166   2.88309   2.88391   2.88435
 Alpha virt. eigenvalues --    2.88984   2.91586   2.91796   2.92011   2.92075
 Alpha virt. eigenvalues --    2.93762   2.95173   2.95390   2.95586   2.97957
 Alpha virt. eigenvalues --    2.98268   3.02578   3.02717   3.02841   3.02933
 Alpha virt. eigenvalues --    3.02939   3.03012   3.03067   3.03134   3.03309
 Alpha virt. eigenvalues --    3.03341   3.03472   3.03864   3.04183   3.04213
 Alpha virt. eigenvalues --    3.04799   3.05094   3.05289   3.05830   3.06588
 Alpha virt. eigenvalues --    3.07233   3.07610   3.08021   3.09015   3.09610
 Alpha virt. eigenvalues --    3.14500   3.26226   3.26551   3.26640   3.26702
 Alpha virt. eigenvalues --    3.28645   3.28813   3.29006   3.29022   3.39753
 Alpha virt. eigenvalues --    3.40228   3.40415   3.40538   3.40555   3.40687
 Alpha virt. eigenvalues --    3.40832   3.41307   3.41438   3.41620   3.55315
 Alpha virt. eigenvalues --    3.55399   3.65027   3.65033   3.65170   3.65176
 Alpha virt. eigenvalues --    3.65866   3.66030   3.66118   3.66163
          Condensed to atoms (all electrons):
 Mulliken atomic charges:
              1
     1  C   -0.299065
     2  C    0.098578
     3  C    0.043024
     4  C    0.042181
     5  C    0.098615
     6  C    0.101053
     7  C    0.043073
     8  C    0.042124
     9  C    0.100355
    10  C    0.018497
    11  C    0.072704
    12  C    0.066064
    13  C   -0.009881
    14  C   -0.011423
    15  C    0.062519
    16  C    0.080064
    17  C    0.018797
    18  C    0.021685
    19  C    0.075619
    20  C    0.064624
    21  C   -0.011549
    22  C   -0.009792
    23  C    0.065862
    24  C    0.079107
    25  C    0.016087
    26  N   -0.278629
    27  N   -0.278673
    28  N   -0.277811
    29  N   -0.277341
    30  C    0.051883
    31  C    0.062556
    32  C    0.029712
    33  C    0.023178
    34  C    0.031763
    35  C    0.077353
    36  C    0.023039
    37  C    0.079480
    38  C    0.053751
    39  C   -0.001758
    40  C    0.120220
    41  C    0.049794
    42  C    0.060033
    43  C    0.052531
    44  C   -0.000587
    45  C    0.121488
    46  C    0.041864
    47  C    0.052699
    48  C    0.028726
    49  C    0.129820
    50  C   -0.028129
    51  C    0.054348
    52  C    0.019608
    53  C    0.032316
    54  C    0.130493
    55  C   -0.024422
    56  C    0.046929
    57  C    0.014153
    58  C    0.008115
    59  C    0.058037
    60  C    0.030795
    61  C    0.137068
    62  C   -0.018148
    63  C    0.048300
    64  C   -0.003317
    65  C    0.119068
    66  C    0.048817
    67  C    0.058330
    68  C    0.051820
    69  C    0.041440
    70  C    0.120405
    71  C   -0.002555
    72  C    0.047663
    73  C    0.016201
    74  C    0.066392
    75  C    0.028442
    76  C    0.136839
    77  C   -0.014441
    78  H   -0.041261
    79  H   -0.039504
    80  H   -0.034800
    81  H   -0.056178
    82  H   -0.056471
    83  H   -0.033549
    84  H   -0.054722
    85  H   -0.031293
    86  H   -0.054558
    87  H   -0.032067
    88  H   -0.037700
    89  H   -0.042706
    90  O   -0.279258
    91  C    0.130537
    92  O   -0.281518
    93  C    0.130225
    94  O   -0.281338
    95  O   -0.279393
    96  C    0.130597
    97  C    0.130179
    98  H   -0.030361
    99  H   -0.029525
   100  H   -0.032892
   101  H   -0.035790
   102  H   -0.034359
   103  H   -0.032336
   104  H   -0.025437
   105  H   -0.027142
   106  H   -0.030133
   107  H   -0.034621
   108  H   -0.024574
   109  H   -0.026267
   110  H   -0.033821
   111  H   -0.029809
   112  H   -0.030244
   113  H   -0.029282
   114  H    0.025888
   115  H    0.025118
   116  H    0.033381
   117  H    0.025128
   118  H    0.025403
   119  H    0.033041
   120  H    0.032991
   121  H    0.026198
   122  H    0.025090
   123  H    0.023862
   124  H    0.026655
   125  H    0.033559
   126  O   -0.284520
   127  H   -0.032375
   128  H   -0.039977
   129  H   -0.029337
   130  H   -0.027635
   131  H   -0.031386
   132  H   -0.033034
   133  H   -0.038943
   134  O   -0.284318
   135  H   -0.033727
   136  O   -0.282963
   137  H   -0.028485
   138  H   -0.043587
   139  H   -0.028874
   140  H   -0.026881
   141  H   -0.030503
   142  H   -0.035523
   143  H   -0.042937
   144  O   -0.282860
   145  H   -0.028331
   146  C    0.132724
   147  C    0.131816
   148  C    0.131745
   149  C    0.132657
   150  H    0.030787
   151  H    0.027486
   152  H    0.027086
   153  H    0.031368
   154  H    0.026089
   155  H    0.024575
   156  H    0.031639
   157  H    0.025266
   158  H    0.024180
   159  H    0.030491
   160  H    0.028414
   161  H    0.026355
 Sum of Mulliken atomic charges =   0.00000
 Mulliken charges with hydrogens summed into heavy atoms:
              1
     1  C   -0.299065
     2  C    0.098578
     3  C    0.043024
     4  C    0.042181
     5  C    0.098615
     6  C    0.101053
     7  C    0.043073
     8  C    0.042124
     9  C    0.100355
    10  C   -0.024209
    11  C    0.072704
    12  C    0.033997
    13  C   -0.064439
    14  C   -0.067894
    15  C    0.028971
    16  C    0.080064
    17  C   -0.018903
    18  C   -0.017819
    19  C    0.075619
    20  C    0.029824
    21  C   -0.067727
    22  C   -0.064514
    23  C    0.034569
    24  C    0.079107
    25  C   -0.025174
    26  N   -0.278629
    27  N   -0.278673
    28  N   -0.277811
    29  N   -0.277341
    30  C    0.051883
    31  C    0.062556
    32  C    0.029712
    33  C    0.023178
    34  C    0.031763
    35  C    0.077353
    36  C    0.023039
    37  C    0.079480
    38  C    0.021415
    39  C   -0.036116
    40  C    0.120220
    41  C    0.019433
    42  C    0.030509
    43  C    0.019639
    44  C   -0.036377
    45  C    0.121488
    46  C    0.016427
    47  C    0.025557
    48  C    0.000395
    49  C    0.129820
    50  C   -0.071066
    51  C    0.018825
    52  C   -0.010896
    53  C    0.003831
    54  C    0.130493
    55  C   -0.068009
    56  C    0.018054
    57  C   -0.012728
    58  C   -0.019521
    59  C    0.028699
    60  C   -0.009182
    61  C    0.137068
    62  C   -0.050523
    63  C    0.018491
    64  C   -0.037139
    65  C    0.119068
    66  C    0.018573
    67  C    0.029049
    68  C    0.025553
    69  C    0.016866
    70  C    0.120405
    71  C   -0.037176
    72  C    0.017530
    73  C   -0.015185
    74  C    0.033358
    75  C   -0.010501
    76  C    0.136839
    77  C   -0.048168
    90  O   -0.279258
    91  C    0.214614
    92  O   -0.281518
    93  C    0.214612
    94  O   -0.281338
    95  O   -0.279393
    96  C    0.214169
    97  C    0.214458
   126  O   -0.284520
   134  O   -0.284318
   136  O   -0.282963
   144  O   -0.282860
   146  C    0.218083
   147  C    0.213847
   148  C    0.212829
   149  C    0.217916
 Sum of Mulliken charges with hydrogens summed into heavy atoms =   0.00000
 Electronic spatial extent (au):  <R**2>=         110222.3225
 Charge=              0.0000 electrons
 Dipole moment (field-independent basis, Debye):
    X=              2.9306    Y=              2.4864    Z=              2.7687  Tot=              4.7366
 Quadrupole moment (field-independent basis, Debye-Ang):
   XX=           -463.4683   YY=           -493.4701   ZZ=           -498.2178
   XY=             10.1788   XZ=            -11.7225   YZ=             -1.4554
 Traceless Quadrupole moment (field-independent basis, Debye-Ang):
   XX=             21.5838   YY=             -8.4180   ZZ=            -13.1657
   XY=             10.1788   XZ=            -11.7225   YZ=             -1.4554
 Octapole moment (field-independent basis, Debye-Ang**2):
  XXX=            489.1006  YYY=            147.4352  ZZZ=             93.0398  XYY=           -243.8928
  XXY=            168.5166  XXZ=            143.1486  XZZ=             42.7728  YZZ=            164.7011
  YYZ=             61.5073  XYZ=             25.4880
 Hexadecapole moment (field-independent basis, Debye-Ang**3):
 XXXX=         -60349.3560 YYYY=         -57537.4545 ZZZZ=         -20975.1781 XXXY=           -146.0139
 XXXZ=          -1584.8397 YYYX=            924.3398 YYYZ=             94.8802 ZZZX=           -434.6186
 ZZZY=           -111.6869 XXYY=         -17994.1576 XXZZ=         -12519.2386 YYZZ=         -12086.0360
 XXYZ=            -86.3344 YYXZ=           -547.8325 ZZXY=             -2.3830
 N-N= 1.624253410685D+04 E-N=-4.166849943252D+04  KE= 3.922844581703D+03
 Leave Link  601 at Tue Feb  3 00:21:34 2015, MaxMem= 2147483648 cpu:      77.0
 (Enter /opt/g09/l9999.exe)
 1\1\GINC-CHPC-SCANDIUM\SP\RB3LYP\CC-pVDZ\C81H68N4O8\JARVIST\03-Feb-201
 5\0\\#p sp B3LYP/cc-pVDZ\\Auto Spiro; and yes I said yes I will Yes.\\
 0,1\C,0,-0.044978,-0.030016,-0.1131\C,0,0.722977,-0.921813,0.869724\C,
 0,0.412972,-0.573761,2.199242\C,0,-0.552392,0.52718,2.185568\C,0,-0.83
 4772,0.866458,0.847817\C,0,0.859758,0.74817,-1.075572\C,0,0.536319,0.4
 45077,-2.412626\C,0,-0.568733,-0.515585,-2.42402\C,0,-0.925418,-0.8125
 19,-1.094359\C,0,1.88398,1.628013,-0.763846\C,0,2.605637,2.241265,-1.8
 05674\C,0,2.272294,1.949288,-3.142161\C,0,1.252825,1.0506,-3.447895\C,
 0,-1.181563,1.22586,3.218597\C,0,-2.071062,2.252328,2.910189\C,0,-2.36
 0093,2.586904,1.572999\C,0,-1.731866,1.874293,0.532799\C,0,1.625305,-1
 .932878,0.580544\C,0,2.231349,-2.637514,1.63854\C,0,1.914796,-2.295034
 ,2.966872\C,0,1.019426,-1.266104,3.250048\C,0,-1.259251,-1.126347,-3.4
 73902\C,0,-2.285074,-2.024096,-3.189704\C,0,-2.651071,-2.3116,-1.86021
 1\C,0,-1.956557,-1.69167,-0.803734\N,0,3.650946,3.15667,-1.50869\N,0,-
 3.289841,3.619404,1.284229\N,0,3.167989,-3.672872,1.375218\N,0,-3.6996
 95,-3.228581,-1.587511\C,0,-4.882269,-3.228401,-2.373662\C,0,2.949035,
 -4.606341,0.33023\C,0,-3.56629,-4.151299,-0.51001\C,0,4.349998,-3.7603
 92,2.167312\C,0,3.46865,4.108841,-0.463568\C,0,4.860506,3.134884,-2.24
 758\C,0,-4.470105,3.735047,2.077546\C,0,-3.071912,4.519695,0.210611\C,
 0,-4.852715,4.966604,2.618475\C,0,-6.012703,5.088329,3.386555\C,0,-6.7
 98543,3.959727,3.645509\C,0,-6.414906,2.718619,3.116181\C,0,-5.27309,2
 .610744,2.334824\C,0,4.464658,4.324604,0.494444\C,0,4.29629,5.265477,1
 .51256\C,0,3.103887,5.992148,1.600731\C,0,2.094049,5.771739,0.652311\C
 ,0,2.278527,4.851236,-0.370226\C,0,5.520728,4.328325,-2.559398\C,0,6.7
 27935,4.310119,-3.267994\C,0,7.282201,3.097946,-3.694765\C,0,6.607541,
 1.911458,-3.388027\C,0,5.419056,1.911757,-2.669214\C,0,-4.149061,4.970
 445,-0.559406\C,0,-3.946686,5.880152,-1.604148\C,0,-2.65941,6.337361,-
 1.906998\C,0,-1.588202,5.871739,-1.137171\C,0,-1.774365,4.983015,-0.08
 5643\C,0,1.659645,-5.079102,0.046923\C,0,1.477192,-6.001612,-0.985033\
 C,0,2.549858,-6.478255,-1.73008\C,0,3.839812,-6.009612,-1.441979\C,0,4
 .040766,-5.071902,-0.426617\C,0,5.134803,-2.628655,2.411593\C,0,6.2848
 22,-2.703225,3.201022\C,0,6.680291,-3.931534,3.741982\C,0,5.90452,-5.0
 73749,3.492666\C,0,4.750848,-4.986789,2.726461\C,0,-2.379187,-4.884691
 ,-0.335141\C,0,-2.248175,-5.783431,0.714498\C,0,-3.308301,-5.991345,1.
 609703\C,0,-4.497394,-5.273665,1.440678\C,0,-4.6132,-4.354258,0.39563\
 C,0,-5.459687,-2.024661,-2.799271\C,0,-6.622072,-2.054396,-3.572177\C,
 0,-7.231635,-3.255862,-3.914833\C,0,-6.656794,-4.460543,-3.482884\C,0,
 -5.483531,-4.45134,-2.725656\H,0,-2.234951,-1.904703,0.223631\H,0,1.87
 0168,-2.185008,-0.446483\H,0,2.379867,-2.846692,3.777451\H,0,0.790471,
 -1.02169,4.284329\H,0,-0.975622,0.987606,4.25915\H,0,-2.553073,2.80834
 6,3.70759\H,0,-0.995178,-0.921956,-4.508451\H,0,-2.815706,-2.513539,-3
 .999761\H,0,1.014103,0.841416,-4.487627\H,0,2.823179,2.435432,-3.94077
 1\H,0,-1.957061,2.116702,-0.500918\H,0,2.136697,1.847219,0.268943\O,0,
 -3.08135,-6.907104,2.598941\C,0,-4.11377,-7.141085,3.541279\O,0,7.7896
 72,-4.123387,4.517971\C,0,8.606606,-3.000975,4.803893\O,0,-7.944016,3.
 960086,4.391963\O,0,2.82838,6.928384,2.558018\C,0,3.812703,7.181852,3.
 54555\C,0,-8.378205,5.189469,4.947888\H,0,-7.038061,1.852957,3.318239\
 H,0,-4.99089,1.648732,1.918402\H,0,5.388185,3.756806,0.439285\H,0,5.09
 3462,5.408485,2.233243\H,0,-6.281026,6.060218,3.784873\H,0,-4.240864,5
 .843419,2.430264\H,0,1.175278,6.345118,0.729693\H,0,1.493826,4.693337,
 -1.103716\H,0,-5.534024,-3.791421,0.278566\H,0,-5.331904,-5.405128,2.1
 20179\H,0,-1.33247,-6.349822,0.854757\H,0,-1.55489,-4.737387,-1.026195
 \H,0,6.865033,-1.803512,3.371912\H,0,4.839522,-1.674874,1.985261\H,0,6
 .217782,-6.018561,3.926147\H,0,4.149415,-5.873296,2.550783\H,0,8.05214
 7,-2.224947,5.348776\H,0,9.029204,-2.563601,3.889116\H,0,9.418001,-3.3
 72356,5.432791\H,0,4.745751,7.554527,3.101393\H,0,4.031825,6.283731,4.
 138766\H,0,3.392974,7.950056,4.197858\H,0,-9.296796,4.964706,5.493332\
 H,0,-8.592908,5.933143,4.168498\H,0,-7.636406,5.603963,5.643973\H,0,-5
 .022419,-7.527269,3.059525\H,0,-4.364849,-6.230249,4.101406\H,0,-3.725
 777,-7.892571,4.231563\O,0,4.841194,-6.518742,-2.220868\H,0,5.028857,-
 4.688336,-0.208124\H,0,2.419095,-7.203566,-2.526161\H,0,0.476711,-6.36
 9432,-1.198859\H,0,0.814734,-4.72987,0.629913\H,0,-5.004768,-1.080075,
 -2.522424\H,0,-7.067577,-1.117871,-3.897407\H,0,-8.141069,-3.290133,-4
 .5055\O,0,-7.310163,-5.59817,-3.867552\H,0,-5.018579,-5.3734,-2.401349
 \O,0,-5.078039,6.24914,-2.278442\H,0,-5.157467,4.625276,-0.362118\H,0,
 -2.481975,7.038243,-2.71378\H,0,-0.586403,6.23109,-1.359377\H,0,-0.931
 251,4.647509,0.507886\H,0,4.921772,0.979623,-2.425662\H,0,7.034332,0.9
 64085,-3.707512\H,0,8.213022,3.064191,-4.248\O,0,7.27854,5.539604,-3.5
 06067\H,0,5.111845,5.285953,-2.258026\C,0,-6.779729,-6.849063,-3.46232
 8\C,0,-4.942106,7.133354,-3.377804\C,0,8.480441,5.600417,-4.254552\C,0
 ,6.170254,-6.090928,-1.974311\H,0,-7.457708,-7.605394,-3.862751\H,0,-6
 .74168,-6.938303,-2.368465\H,0,-5.773224,-7.013562,-3.869815\H,0,-5.94
 9928,7.27894,-3.77171\H,0,-4.303935,6.70757,-4.163684\H,0,-4.531002,8.
 104076,-3.069391\H,0,8.729272,6.660336,-4.336507\H,0,8.353215,5.179486
 ,-5.261018\H,0,9.301185,5.074822,-3.747945\H,0,6.795732,-6.632177,-2.6
 86981\H,0,6.491299,-6.332993,-0.952454\H,0,6.285619,-5.011209,-2.13925
 \\Version=EM64L-G09RevA.02\State=1-A\HF=-3948.5209761\RMSD=4.157e-09\D
 ipole=1.1529772,0.9782074,1.089275\Quadrupole=16.046994,-6.2585911,-9.
 7884029,7.5676626,-8.715391,-1.0820855\PG=C01 [X(C81H68N4O8)]\\@


 THE ... SCIENTISTS WERE WRONG ... THE MOST PERSISTENT PRINCIPLES 
 OF THE UNIVERSE WERE ACCIDENT AND ERROR.

                          -- FRANK HERBERT IN DUNE
 Job cpu time:  0 days  9 hours 23 minutes 11.0 seconds.
 File lengths (MBytes):  RWF=   1440 Int=      0 D2E=      0 Chk=     94 Scr=      1
 Normal termination of Gaussian 09 at Tue Feb  3 00:21:34 2015.
