 Entering Gaussian System, Link 0=g09
 Input=sp_5_B3LYP_cc-pVDZ.com
 Output=sp_5_B3LYP_cc-pVDZ.log
 Initial command:
 /opt/g09/l1.exe /home/jarvist/2014-07_SPIRO/b3lyp-631gs_opt/delta_scf/neutral/Gau-44582.inp -scrdir=/home/jarvist/2014-07_SPIRO/b3lyp-631gs_opt/delta_scf/neutral/
 Default is to use a total of   8 processors:
                                8 via shared-memory
                                1 via Linda
 Entering Link 1 = /opt/g09/l1.exe PID=     44584.
  
 Copyright (c) 1988,1990,1992,1993,1995,1998,2003,2009, Gaussian, Inc.
                  All Rights Reserved.
  
 This is part of the Gaussian(R) 09 program.  It is based on
 the Gaussian(R) 03 system (copyright 2003, Gaussian, Inc.),
 the Gaussian(R) 98 system (copyright 1998, Gaussian, Inc.),
 the Gaussian(R) 94 system (copyright 1995, Gaussian, Inc.),
 the Gaussian 92(TM) system (copyright 1992, Gaussian, Inc.),
 the Gaussian 90(TM) system (copyright 1990, Gaussian, Inc.),
 the Gaussian 88(TM) system (copyright 1988, Gaussian, Inc.),
 the Gaussian 86(TM) system (copyright 1986, Carnegie Mellon
 University), and the Gaussian 82(TM) system (copyright 1983,
 Carnegie Mellon University). Gaussian is a federally registered
 trademark of Gaussian, Inc.
  
 This software contains proprietary and confidential information,
 including trade secrets, belonging to Gaussian, Inc.
  
 This software is provided under written license and may be
 used, copied, transmitted, or stored only in accord with that
 written license.
  
 The following legend is applicable only to US Government
 contracts under FAR:
  
                    RESTRICTED RIGHTS LEGEND
  
 Use, reproduction and disclosure by the US Government is
 subject to restrictions as set forth in subparagraphs (a)
 and (c) of the Commercial Computer Software - Restricted
 Rights clause in FAR 52.227-19.
  
 Gaussian, Inc.
 340 Quinnipiac St., Bldg. 40, Wallingford CT 06492
  
  
 ---------------------------------------------------------------
 Warning -- This program may not be used in any manner that
 competes with the business of Gaussian, Inc. or will provide
 assistance to any competitor of Gaussian, Inc.  The licensee
 of this program is prohibited from giving any competitor of
 Gaussian, Inc. access to this program.  By using this program,
 the user acknowledges that Gaussian, Inc. is engaged in the
 business of creating and licensing software in the field of
 computational chemistry and represents and warrants to the
 licensee that it is not a competitor of Gaussian, Inc. and that
 it will not use this program in any manner prohibited above.
 ---------------------------------------------------------------
  

 Cite this work as:
 Gaussian 09, Revision A.02,
 M. J. Frisch, G. W. Trucks, H. B. Schlegel, G. E. Scuseria, 
 M. A. Robb, J. R. Cheeseman, G. Scalmani, V. Barone, B. Mennucci, 
 G. A. Petersson, H. Nakatsuji, M. Caricato, X. Li, H. P. Hratchian, 
 A. F. Izmaylov, J. Bloino, G. Zheng, J. L. Sonnenberg, M. Hada, 
 M. Ehara, K. Toyota, R. Fukuda, J. Hasegawa, M. Ishida, T. Nakajima, 
 Y. Honda, O. Kitao, H. Nakai, T. Vreven, J. A. Montgomery, Jr., 
 J. E. Peralta, F. Ogliaro, M. Bearpark, J. J. Heyd, E. Brothers, 
 K. N. Kudin, V. N. Staroverov, R. Kobayashi, J. Normand, 
 K. Raghavachari, A. Rendell, J. C. Burant, S. S. Iyengar, J. Tomasi, 
 M. Cossi, N. Rega, J. M. Millam, M. Klene, J. E. Knox, J. B. Cross, 
 V. Bakken, C. Adamo, J. Jaramillo, R. Gomperts, R. E. Stratmann, 
 O. Yazyev, A. J. Austin, R. Cammi, C. Pomelli, J. W. Ochterski, 
 R. L. Martin, K. Morokuma, V. G. Zakrzewski, G. A. Voth, 
 P. Salvador, J. J. Dannenberg, S. Dapprich, A. D. Daniels, 
 O. Farkas, J. B. Foresman, J. V. Ortiz, J. Cioslowski, 
 and D. J. Fox, Gaussian, Inc., Wallingford CT, 2009.
 
 ******************************************
 Gaussian 09:  EM64L-G09RevA.02 11-Jun-2009
                 3-Feb-2015 
 ******************************************
 %mem=16GB
 %nprocs=24
 Will use up to   24 processors via shared memory.
 Default route:  MaxDisk=100GB
 -------------------
 #p sp B3LYP/cc-pVDZ
 -------------------
 1/38=1/1;
 2/12=2,17=6,18=5,40=1/2;
 3/5=16,11=2,16=1,25=1,30=1,74=-5/1,2,3;
 4//1;
 5/5=2,38=5/2;
 6/7=2,8=2,9=2,10=2,28=1/1;
 99/5=1,9=1/99;
 Leave Link    1 at Tue Feb  3 00:21:34 2015, MaxMem= 2147483648 cpu:       1.2
 (Enter /opt/g09/l101.exe)
 ------------------------------------------
 Auto Spiro; and yes I said yes I will Yes.
 ------------------------------------------
 Symbolic Z-matrix:
 Charge =  0 Multiplicity = 1
 C                    -0.01655   0.04969   0.16246 
 C                     0.76337   0.93618  -0.81609 
 C                     0.44538   0.60446  -2.14676 
 C                    -0.54884  -0.47189  -2.1399 
 C                    -0.81936  -0.82931  -0.80586 
 C                     0.87851  -0.73464   1.12927 
 C                     0.53806  -0.44762   2.4675 
 C                    -0.59043   0.48634   2.47503 
 C                    -0.90999   0.82057   1.14258 
 C                     1.91722  -1.59535   0.82162 
 C                     2.64823  -2.19331   1.86541 
 C                     2.31948  -1.89798   3.19938 
 C                     1.27228  -1.02831   3.50371 
 C                    -1.21053  -1.12176  -3.18562 
 C                    -2.12882  -2.126    -2.88983 
 C                    -2.40176  -2.48138  -1.55781 
 C                    -1.73792  -1.82645  -0.50764 
 C                     1.69827   1.92292  -0.53267 
 C                     2.32769   2.59372  -1.59389 
 C                     2.00445   2.26638  -2.92145 
 C                     1.0713    1.27185  -3.20333 
 C                    -1.34313   1.03012   3.51724 
 C                    -2.38227   1.91471   3.22569 
 C                    -2.68116   2.2673    1.89855 
 C                    -1.93613   1.69998   0.84786 
 N                     3.7131   -3.08182   1.56989 
 N                    -3.34659  -3.51056  -1.26458 
 N                     3.29279   3.61072  -1.31978 
 N                    -3.72782   3.18646   1.61691 
 C                    -4.98021   3.05987   2.2722 
 C                     2.85803   4.76703  -0.61518 
 C                    -3.54935   4.16966   0.60557 
 C                     4.627     3.49395  -1.75759 
 C                     3.55679  -4.07297   0.56811 
 C                     4.94355  -2.96131   2.26594 
 C                    -4.68187  -3.43518  -1.71129 
 C                    -2.87929  -4.6657   -0.57878 
 C                    -5.48632  -4.58     -1.80212 
 C                    -6.81862  -4.50269  -2.21705 
 C                    -7.37713  -3.27154  -2.56808 
 C                    -6.58158  -2.1217   -2.48537 
 C                    -5.26286  -2.19761  -2.05784 
 C                     4.60528  -4.41354  -0.29184 
 C                     4.4461   -5.39961  -1.27156 
 C                     3.21708  -6.0487   -1.41443 
 C                     2.16428  -5.71833  -0.55053 
 C                     2.33352  -4.75365   0.42935 
 C                     5.42066  -4.01768   3.072 
 C                     6.64681  -3.90807   3.74016 
 C                     7.38163  -2.72925   3.62574 
 C                     6.92842  -1.66269   2.85238 
 C                     5.71463  -1.78177   2.16143 
 C                    -3.19607  -4.87769   0.77867 
 C                    -2.74059  -6.02223   1.4467 
 C                    -1.95917  -6.94607   0.75528 
 C                    -1.62434  -6.76198  -0.58464 
 C                    -2.08997  -5.62105  -1.25465 
 C                     2.07661   5.74307  -1.27055 
 C                     1.64098   6.88516  -0.58222 
 C                     1.99873   7.0503    0.75426 
 C                     2.77369   6.10608   1.42528 
 C                     3.19794   4.96008   0.73964 
 C                     5.16373   2.25553  -2.14352 
 C                     6.4876    2.13968  -2.5775 
 C                     7.3169    3.26284  -2.61953 
 C                     6.79451   4.50104  -2.2258 
 C                     5.47539   4.61815  -1.80964 
 C                    -2.31645   4.83439   0.47933 
 C                    -2.12091   5.78975  -0.50556 
 C                    -3.15675   6.12291  -1.38758 
 C                    -4.39386   5.48477  -1.26073 
 C                    -4.57941   4.50996  -0.27595 
 C                    -5.70383   1.83974   2.20759 
 C                    -6.9472    1.7184    2.83661 
 C                    -7.50027   2.8148    3.5023 
 C                    -6.81684   4.0237    3.56352 
 C                    -5.55961   4.14228   2.9633 
 H                    -2.18594   1.94435  -0.17943 
 H                     1.97017   2.16885   0.48922 
 H                     2.49262   2.80961  -3.72376 
 H                     0.82958   1.02971  -4.23532 
 H                    -1.00738  -0.85923  -4.22094 
 H                    -2.64211  -2.65615  -3.68524 
 H                    -1.12426   0.77902   4.55244 
 H                    -2.9718    2.34154   4.03145 
 H                     1.0297   -0.81929   4.54302 
 H                     2.88795  -2.36814   3.99596 
 H                    -1.97043  -2.09344   0.5187 
 H                     2.18749  -1.80295  -0.20878 
 O                    -2.85339   7.0748   -2.33089 
 C                    -3.8685    7.44263  -3.24799 
 O                     8.63075   3.26153  -3.02266 
 C                     9.18895   2.03152  -3.44094 
 O                    -8.6694   -3.08242  -2.99479 
 O                     2.93665  -7.01123  -2.35521 
 C                     3.96651  -7.36976  -3.25816 
 C                    -9.4981   -4.2226   -3.10869 
 H                    -7.01997  -1.1653   -2.75491 
 H                    -4.67291  -1.28991  -1.99339 
 H                     5.55794  -3.90089  -0.20136 
 H                     5.28191  -5.63154  -1.92247 
 H                    -7.40086  -5.4163   -2.26919 
 H                    -5.07177  -5.54906  -1.54592 
 H                     1.21798  -6.24068  -0.6463 
 H                     1.51198  -4.5195    1.09786 
 H                    -5.53976   4.01073  -0.19506 
 H                    -5.21686   5.71974  -1.92641 
 H                    -1.16617   6.29778  -0.59307 
 H                    -1.50244   4.59025   1.15397 
 H                     6.85262   1.16181  -2.87211 
 H                     4.54328   1.36676  -2.11224 
 H                     7.44082   5.37308  -2.26365 
 H                     5.09386   5.59215  -1.52278 
 H                     8.65568   1.61495  -4.30718 
 H                     9.18741   1.28598  -2.63288 
 H                     10.22102   2.24792  -3.72564 
 H                     4.83922  -7.78411  -2.73459 
 H                     4.28993  -6.51361  -3.86618 
 H                     3.54398  -8.13578  -3.91199 
 H                    -10.46549  -3.86025  -3.46342 
 H                    -9.63498  -4.72622  -2.14107 
 H                    -9.09757  -4.94758  -3.8314 
 H                    -4.74234   7.86752  -2.73555 
 H                    -4.19294   6.58855  -3.85812 
 H                    -3.42896   8.20241  -3.89774 
 H                     3.02958   6.25993   2.46638 
 O                     3.94016   3.96535   1.30464 
 H                     1.66561   7.9374    1.28616 
 H                     1.04737   7.64188  -1.08086 
 O                     1.8066    5.49342  -2.57865 
 O                    -5.11156   0.84462   1.4944 
 H                    -7.49977   0.78802   2.78228 
 H                    -8.47409   2.71673   3.97412 
 H                    -7.22856   4.8899    4.07113 
 O                    -4.94699   5.37347   3.00714 
 H                    -2.97671  -6.19001   2.49029 
 O                    -3.94739  -3.90253   1.36547 
 H                    -1.60204  -7.83163   1.27398 
 H                    -1.02511  -7.50316  -1.09956 
 O                    -1.84352  -5.35308  -2.56404 
 O                     5.19667  -0.81427   1.35887 
 H                     7.52424  -0.76176   2.77139 
 H                     8.32857  -2.6403    4.15142 
 H                     7.01713  -4.71833   4.35647 
 O                     4.60728  -5.10834   3.14342 
 C                    -1.02432  -6.25025  -3.30251 
 C                     5.86569   0.43649   1.28022 
 C                     1.00585   6.42109  -3.30025 
 C                    -5.75291  -0.42072   1.42349 
 H                    -0.96705  -5.83206  -4.30898 
 H                    -1.47043  -7.25229  -3.35282 
 H                    -0.01361  -6.3211   -2.88269 
 H                    -6.71538  -0.35604   0.89984 
 H                    -5.91586  -0.83984   2.42569 
 H                    -5.08139  -1.07123   0.862 
 H                     1.47772   7.41167  -3.34005 
 H                    -0.00053   6.51189  -2.87407 
 H                     0.93265   6.01785  -4.3118 
 H                     5.24372   1.07549   0.65245 
 H                     6.85796   0.33555   0.82143 
 H                     5.97406   0.89168   2.27375 
 C                     5.04702  -6.23279   3.88579 
 H                     4.2593   -6.98136   3.78351 
 H                     5.18155  -5.99025   4.94857 
 H                     5.98652  -6.63797   3.48758 
 C                    -4.31125  -4.06362   2.72806 
 H                    -4.89844  -3.18028   2.9841 
 H                    -3.42894  -4.11224   3.37901 
 H                    -4.92277  -4.96284   2.87747 
 C                     4.33825   4.10992   2.65937 
 H                     4.91372   3.21347   2.89599 
 H                     4.97048   4.99601   2.80045 
 H                     3.47239   4.1709    3.33115 
 C                    -3.78999   5.46894   3.83612 
 H                    -4.02924   5.19587   4.87323 
 H                    -3.47837   6.51535   3.80012 
 H                    -2.97328   4.8367    3.47278 
 
 NAtoms=    177 NQM=    177 NQMF=      0 NMic=      0 NMicF=      0 NTot=    177.
                    Isotopes and Nuclear Properties:
 (Nuclear quadrupole moments (NQMom) in fm**2, nuclear magnetic moments (NMagM)
  in nuclear magnetons)

  Atom         1           2           3           4           5           6           7           8           9          10
 IAtWgt=          12          12          12          12          12          12          12          12          12          12
 AtmWgt=  12.0000000  12.0000000  12.0000000  12.0000000  12.0000000  12.0000000  12.0000000  12.0000000  12.0000000  12.0000000
 NucSpn=           0           0           0           0           0           0           0           0           0           0
 AtZEff=   0.0000000   0.0000000   0.0000000   0.0000000   0.0000000   0.0000000   0.0000000   0.0000000   0.0000000   0.0000000
 NQMom=    0.0000000   0.0000000   0.0000000   0.0000000   0.0000000   0.0000000   0.0000000   0.0000000   0.0000000   0.0000000
 NMagM=    0.0000000   0.0000000   0.0000000   0.0000000   0.0000000   0.0000000   0.0000000   0.0000000   0.0000000   0.0000000

  Atom        11          12          13          14          15          16          17          18          19          20
 IAtWgt=          12          12          12          12          12          12          12          12          12          12
 AtmWgt=  12.0000000  12.0000000  12.0000000  12.0000000  12.0000000  12.0000000  12.0000000  12.0000000  12.0000000  12.0000000
 NucSpn=           0           0           0           0           0           0           0           0           0           0
 AtZEff=   0.0000000   0.0000000   0.0000000   0.0000000   0.0000000   0.0000000   0.0000000   0.0000000   0.0000000   0.0000000
 NQMom=    0.0000000   0.0000000   0.0000000   0.0000000   0.0000000   0.0000000   0.0000000   0.0000000   0.0000000   0.0000000
 NMagM=    0.0000000   0.0000000   0.0000000   0.0000000   0.0000000   0.0000000   0.0000000   0.0000000   0.0000000   0.0000000

  Atom        21          22          23          24          25          26          27          28          29          30
 IAtWgt=          12          12          12          12          12          14          14          14          14          12
 AtmWgt=  12.0000000  12.0000000  12.0000000  12.0000000  12.0000000  14.0030740  14.0030740  14.0030740  14.0030740  12.0000000
 NucSpn=           0           0           0           0           0           2           2           2           2           0
 AtZEff=   0.0000000   0.0000000   0.0000000   0.0000000   0.0000000   0.0000000   0.0000000   0.0000000   0.0000000   0.0000000
 NQMom=    0.0000000   0.0000000   0.0000000   0.0000000   0.0000000   2.0440000   2.0440000   2.0440000   2.0440000   0.0000000
 NMagM=    0.0000000   0.0000000   0.0000000   0.0000000   0.0000000   0.4037610   0.4037610   0.4037610   0.4037610   0.0000000

  Atom        31          32          33          34          35          36          37          38          39          40
 IAtWgt=          12          12          12          12          12          12          12          12          12          12
 AtmWgt=  12.0000000  12.0000000  12.0000000  12.0000000  12.0000000  12.0000000  12.0000000  12.0000000  12.0000000  12.0000000
 NucSpn=           0           0           0           0           0           0           0           0           0           0
 AtZEff=   0.0000000   0.0000000   0.0000000   0.0000000   0.0000000   0.0000000   0.0000000   0.0000000   0.0000000   0.0000000
 NQMom=    0.0000000   0.0000000   0.0000000   0.0000000   0.0000000   0.0000000   0.0000000   0.0000000   0.0000000   0.0000000
 NMagM=    0.0000000   0.0000000   0.0000000   0.0000000   0.0000000   0.0000000   0.0000000   0.0000000   0.0000000   0.0000000

  Atom        41          42          43          44          45          46          47          48          49          50
 IAtWgt=          12          12          12          12          12          12          12          12          12          12
 AtmWgt=  12.0000000  12.0000000  12.0000000  12.0000000  12.0000000  12.0000000  12.0000000  12.0000000  12.0000000  12.0000000
 NucSpn=           0           0           0           0           0           0           0           0           0           0
 AtZEff=   0.0000000   0.0000000   0.0000000   0.0000000   0.0000000   0.0000000   0.0000000   0.0000000   0.0000000   0.0000000
 NQMom=    0.0000000   0.0000000   0.0000000   0.0000000   0.0000000   0.0000000   0.0000000   0.0000000   0.0000000   0.0000000
 NMagM=    0.0000000   0.0000000   0.0000000   0.0000000   0.0000000   0.0000000   0.0000000   0.0000000   0.0000000   0.0000000

  Atom        51          52          53          54          55          56          57          58          59          60
 IAtWgt=          12          12          12          12          12          12          12          12          12          12
 AtmWgt=  12.0000000  12.0000000  12.0000000  12.0000000  12.0000000  12.0000000  12.0000000  12.0000000  12.0000000  12.0000000
 NucSpn=           0           0           0           0           0           0           0           0           0           0
 AtZEff=   0.0000000   0.0000000   0.0000000   0.0000000   0.0000000   0.0000000   0.0000000   0.0000000   0.0000000   0.0000000
 NQMom=    0.0000000   0.0000000   0.0000000   0.0000000   0.0000000   0.0000000   0.0000000   0.0000000   0.0000000   0.0000000
 NMagM=    0.0000000   0.0000000   0.0000000   0.0000000   0.0000000   0.0000000   0.0000000   0.0000000   0.0000000   0.0000000

  Atom        61          62          63          64          65          66          67          68          69          70
 IAtWgt=          12          12          12          12          12          12          12          12          12          12
 AtmWgt=  12.0000000  12.0000000  12.0000000  12.0000000  12.0000000  12.0000000  12.0000000  12.0000000  12.0000000  12.0000000
 NucSpn=           0           0           0           0           0           0           0           0           0           0
 AtZEff=   0.0000000   0.0000000   0.0000000   0.0000000   0.0000000   0.0000000   0.0000000   0.0000000   0.0000000   0.0000000
 NQMom=    0.0000000   0.0000000   0.0000000   0.0000000   0.0000000   0.0000000   0.0000000   0.0000000   0.0000000   0.0000000
 NMagM=    0.0000000   0.0000000   0.0000000   0.0000000   0.0000000   0.0000000   0.0000000   0.0000000   0.0000000   0.0000000

  Atom        71          72          73          74          75          76          77          78          79          80
 IAtWgt=          12          12          12          12          12          12          12           1           1           1
 AtmWgt=  12.0000000  12.0000000  12.0000000  12.0000000  12.0000000  12.0000000  12.0000000   1.0078250   1.0078250   1.0078250
 NucSpn=           0           0           0           0           0           0           0           1           1           1
 AtZEff=   0.0000000   0.0000000   0.0000000   0.0000000   0.0000000   0.0000000   0.0000000   0.0000000   0.0000000   0.0000000
 NQMom=    0.0000000   0.0000000   0.0000000   0.0000000   0.0000000   0.0000000   0.0000000   0.0000000   0.0000000   0.0000000
 NMagM=    0.0000000   0.0000000   0.0000000   0.0000000   0.0000000   0.0000000   0.0000000   2.7928460   2.7928460   2.7928460

  Atom        81          82          83          84          85          86          87          88          89          90
 IAtWgt=           1           1           1           1           1           1           1           1           1          16
 AtmWgt=   1.0078250   1.0078250   1.0078250   1.0078250   1.0078250   1.0078250   1.0078250   1.0078250   1.0078250  15.9949146
 NucSpn=           1           1           1           1           1           1           1           1           1           0
 AtZEff=   0.0000000   0.0000000   0.0000000   0.0000000   0.0000000   0.0000000   0.0000000   0.0000000   0.0000000   0.0000000
 NQMom=    0.0000000   0.0000000   0.0000000   0.0000000   0.0000000   0.0000000   0.0000000   0.0000000   0.0000000   0.0000000
 NMagM=    2.7928460   2.7928460   2.7928460   2.7928460   2.7928460   2.7928460   2.7928460   2.7928460   2.7928460   0.0000000

  Atom        91          92          93          94          95          96          97          98          99         100
 IAtWgt=          12          16          12          16          16          12          12           1           1           1
 AtmWgt=  12.0000000  15.9949146  12.0000000  15.9949146  15.9949146  12.0000000  12.0000000   1.0078250   1.0078250   1.0078250
 NucSpn=           0           0           0           0           0           0           0           1           1           1
 AtZEff=   0.0000000   0.0000000   0.0000000   0.0000000   0.0000000   0.0000000   0.0000000   0.0000000   0.0000000   0.0000000
 NQMom=    0.0000000   0.0000000   0.0000000   0.0000000   0.0000000   0.0000000   0.0000000   0.0000000   0.0000000   0.0000000
 NMagM=    0.0000000   0.0000000   0.0000000   0.0000000   0.0000000   0.0000000   0.0000000   2.7928460   2.7928460   2.7928460

  Atom       101         102         103         104         105         106         107         108         109         110
 IAtWgt=           1           1           1           1           1           1           1           1           1           1
 AtmWgt=   1.0078250   1.0078250   1.0078250   1.0078250   1.0078250   1.0078250   1.0078250   1.0078250   1.0078250   1.0078250
 NucSpn=           1           1           1           1           1           1           1           1           1           1
 AtZEff=   0.0000000   0.0000000   0.0000000   0.0000000   0.0000000   0.0000000   0.0000000   0.0000000   0.0000000   0.0000000
 NQMom=    0.0000000   0.0000000   0.0000000   0.0000000   0.0000000   0.0000000   0.0000000   0.0000000   0.0000000   0.0000000
 NMagM=    2.7928460   2.7928460   2.7928460   2.7928460   2.7928460   2.7928460   2.7928460   2.7928460   2.7928460   2.7928460

  Atom       111         112         113         114         115         116         117         118         119         120
 IAtWgt=           1           1           1           1           1           1           1           1           1           1
 AtmWgt=   1.0078250   1.0078250   1.0078250   1.0078250   1.0078250   1.0078250   1.0078250   1.0078250   1.0078250   1.0078250
 NucSpn=           1           1           1           1           1           1           1           1           1           1
 AtZEff=   0.0000000   0.0000000   0.0000000   0.0000000   0.0000000   0.0000000   0.0000000   0.0000000   0.0000000   0.0000000
 NQMom=    0.0000000   0.0000000   0.0000000   0.0000000   0.0000000   0.0000000   0.0000000   0.0000000   0.0000000   0.0000000
 NMagM=    2.7928460   2.7928460   2.7928460   2.7928460   2.7928460   2.7928460   2.7928460   2.7928460   2.7928460   2.7928460

  Atom       121         122         123         124         125         126         127         128         129         130
 IAtWgt=           1           1           1           1           1           1          16           1           1          16
 AtmWgt=   1.0078250   1.0078250   1.0078250   1.0078250   1.0078250   1.0078250  15.9949146   1.0078250   1.0078250  15.9949146
 NucSpn=           1           1           1           1           1           1           0           1           1           0
 AtZEff=   0.0000000   0.0000000   0.0000000   0.0000000   0.0000000   0.0000000   0.0000000   0.0000000   0.0000000   0.0000000
 NQMom=    0.0000000   0.0000000   0.0000000   0.0000000   0.0000000   0.0000000   0.0000000   0.0000000   0.0000000   0.0000000
 NMagM=    2.7928460   2.7928460   2.7928460   2.7928460   2.7928460   2.7928460   0.0000000   2.7928460   2.7928460   0.0000000

  Atom       131         132         133         134         135         136         137         138         139         140
 IAtWgt=          16           1           1           1          16           1          16           1           1          16
 AtmWgt=  15.9949146   1.0078250   1.0078250   1.0078250  15.9949146   1.0078250  15.9949146   1.0078250   1.0078250  15.9949146
 NucSpn=           0           1           1           1           0           1           0           1           1           0
 AtZEff=   0.0000000   0.0000000   0.0000000   0.0000000   0.0000000   0.0000000   0.0000000   0.0000000   0.0000000   0.0000000
 NQMom=    0.0000000   0.0000000   0.0000000   0.0000000   0.0000000   0.0000000   0.0000000   0.0000000   0.0000000   0.0000000
 NMagM=    0.0000000   2.7928460   2.7928460   2.7928460   0.0000000   2.7928460   0.0000000   2.7928460   2.7928460   0.0000000

  Atom       141         142         143         144         145         146         147         148         149         150
 IAtWgt=          16           1           1           1          16          12          12          12          12           1
 AtmWgt=  15.9949146   1.0078250   1.0078250   1.0078250  15.9949146  12.0000000  12.0000000  12.0000000  12.0000000   1.0078250
 NucSpn=           0           1           1           1           0           0           0           0           0           1
 AtZEff=   0.0000000   0.0000000   0.0000000   0.0000000   0.0000000   0.0000000   0.0000000   0.0000000   0.0000000   0.0000000
 NQMom=    0.0000000   0.0000000   0.0000000   0.0000000   0.0000000   0.0000000   0.0000000   0.0000000   0.0000000   0.0000000
 NMagM=    0.0000000   2.7928460   2.7928460   2.7928460   0.0000000   0.0000000   0.0000000   0.0000000   0.0000000   2.7928460

  Atom       151         152         153         154         155         156         157         158         159         160
 IAtWgt=           1           1           1           1           1           1           1           1           1           1
 AtmWgt=   1.0078250   1.0078250   1.0078250   1.0078250   1.0078250   1.0078250   1.0078250   1.0078250   1.0078250   1.0078250
 NucSpn=           1           1           1           1           1           1           1           1           1           1
 AtZEff=   0.0000000   0.0000000   0.0000000   0.0000000   0.0000000   0.0000000   0.0000000   0.0000000   0.0000000   0.0000000
 NQMom=    0.0000000   0.0000000   0.0000000   0.0000000   0.0000000   0.0000000   0.0000000   0.0000000   0.0000000   0.0000000
 NMagM=    2.7928460   2.7928460   2.7928460   2.7928460   2.7928460   2.7928460   2.7928460   2.7928460   2.7928460   2.7928460

  Atom       161         162         163         164         165         166         167         168         169         170
 IAtWgt=           1          12           1           1           1          12           1           1           1          12
 AtmWgt=   1.0078250  12.0000000   1.0078250   1.0078250   1.0078250  12.0000000   1.0078250   1.0078250   1.0078250  12.0000000
 NucSpn=           1           0           1           1           1           0           1           1           1           0
 AtZEff=   0.0000000   0.0000000   0.0000000   0.0000000   0.0000000   0.0000000   0.0000000   0.0000000   0.0000000   0.0000000
 NQMom=    0.0000000   0.0000000   0.0000000   0.0000000   0.0000000   0.0000000   0.0000000   0.0000000   0.0000000   0.0000000
 NMagM=    2.7928460   0.0000000   2.7928460   2.7928460   2.7928460   0.0000000   2.7928460   2.7928460   2.7928460   0.0000000

  Atom       171         172         173         174         175         176         177
 IAtWgt=           1           1           1          12           1           1           1
 AtmWgt=   1.0078250   1.0078250   1.0078250  12.0000000   1.0078250   1.0078250   1.0078250
 NucSpn=           1           1           1           0           1           1           1
 AtZEff=   0.0000000   0.0000000   0.0000000   0.0000000   0.0000000   0.0000000   0.0000000
 NQMom=    0.0000000   0.0000000   0.0000000   0.0000000   0.0000000   0.0000000   0.0000000
 NMagM=    2.7928460   2.7928460   2.7928460   0.0000000   2.7928460   2.7928460   2.7928460
 Leave Link  101 at Tue Feb  3 00:21:34 2015, MaxMem= 2147483648 cpu:       3.2
 (Enter /opt/g09/l202.exe)
 Stoichiometry    C85H76N4O12
 Framework group  C1[X(C85H76N4O12)]
 Deg. of freedom   525
 Full point group                 C1      NOp   1
 Largest Abelian subgroup         C1      NOp   1
 Largest concise Abelian subgroup C1      NOp   1
                         Standard orientation:                         
 ---------------------------------------------------------------------
 Center     Atomic      Atomic             Coordinates (Angstroms)
 Number     Number       Type             X           Y           Z
 ---------------------------------------------------------------------
      1          6           0       -0.016548    0.049694    0.162459
      2          6           0        0.763366    0.936178   -0.816087
      3          6           0        0.445383    0.604460   -2.146763
      4          6           0       -0.548835   -0.471886   -2.139903
      5          6           0       -0.819357   -0.829311   -0.805862
      6          6           0        0.878509   -0.734641    1.129269
      7          6           0        0.538061   -0.447617    2.467500
      8          6           0       -0.590425    0.486342    2.475034
      9          6           0       -0.909986    0.820567    1.142579
     10          6           0        1.917219   -1.595348    0.821623
     11          6           0        2.648225   -2.193311    1.865410
     12          6           0        2.319483   -1.897983    3.199383
     13          6           0        1.272279   -1.028313    3.503705
     14          6           0       -1.210528   -1.121757   -3.185625
     15          6           0       -2.128820   -2.125998   -2.889825
     16          6           0       -2.401761   -2.481377   -1.557814
     17          6           0       -1.737924   -1.826453   -0.507637
     18          6           0        1.698273    1.922916   -0.532670
     19          6           0        2.327693    2.593717   -1.593894
     20          6           0        2.004453    2.266380   -2.921452
     21          6           0        1.071296    1.271852   -3.203332
     22          6           0       -1.343133    1.030115    3.517239
     23          6           0       -2.382270    1.914706    3.225693
     24          6           0       -2.681158    2.267300    1.898548
     25          6           0       -1.936125    1.699981    0.847862
     26          7           0        3.713097   -3.081818    1.569892
     27          7           0       -3.346594   -3.510560   -1.264578
     28          7           0        3.292787    3.610721   -1.319775
     29          7           0       -3.727821    3.186455    1.616909
     30          6           0       -4.980212    3.059870    2.272203
     31          6           0        2.858027    4.767033   -0.615183
     32          6           0       -3.549346    4.169658    0.605569
     33          6           0        4.627002    3.493952   -1.757592
     34          6           0        3.556788   -4.072974    0.568110
     35          6           0        4.943546   -2.961305    2.265936
     36          6           0       -4.681874   -3.435178   -1.711286
     37          6           0       -2.879291   -4.665704   -0.578776
     38          6           0       -5.486323   -4.580006   -1.802117
     39          6           0       -6.818616   -4.502693   -2.217052
     40          6           0       -7.377134   -3.271538   -2.568075
     41          6           0       -6.581579   -2.121701   -2.485369
     42          6           0       -5.262856   -2.197607   -2.057843
     43          6           0        4.605280   -4.413537   -0.291836
     44          6           0        4.446100   -5.399605   -1.271560
     45          6           0        3.217080   -6.048699   -1.414426
     46          6           0        2.164279   -5.718329   -0.550533
     47          6           0        2.333517   -4.753654    0.429348
     48          6           0        5.420655   -4.017681    3.072004
     49          6           0        6.646814   -3.908066    3.740155
     50          6           0        7.381634   -2.729252    3.625742
     51          6           0        6.928424   -1.662686    2.852382
     52          6           0        5.714627   -1.781767    2.161435
     53          6           0       -3.196074   -4.877689    0.778670
     54          6           0       -2.740592   -6.022228    1.446700
     55          6           0       -1.959169   -6.946068    0.755279
     56          6           0       -1.624339   -6.761975   -0.584641
     57          6           0       -2.089966   -5.621046   -1.254649
     58          6           0        2.076613    5.743068   -1.270550
     59          6           0        1.640975    6.885164   -0.582224
     60          6           0        1.998725    7.050296    0.754258
     61          6           0        2.773687    6.106083    1.425284
     62          6           0        3.197938    4.960076    0.739642
     63          6           0        5.163728    2.255534   -2.143522
     64          6           0        6.487602    2.139685   -2.577499
     65          6           0        7.316901    3.262839   -2.619527
     66          6           0        6.794508    4.501039   -2.225801
     67          6           0        5.475392    4.618150   -1.809641
     68          6           0       -2.316454    4.834388    0.479325
     69          6           0       -2.120915    5.789752   -0.505555
     70          6           0       -3.156748    6.122906   -1.387578
     71          6           0       -4.393861    5.484775   -1.260731
     72          6           0       -4.579405    4.509959   -0.275952
     73          6           0       -5.703827    1.839738    2.207594
     74          6           0       -6.947196    1.718397    2.836612
     75          6           0       -7.500273    2.814800    3.502299
     76          6           0       -6.816842    4.023700    3.563524
     77          6           0       -5.559609    4.142282    2.963297
     78          1           0       -2.185936    1.944354   -0.179427
     79          1           0        1.970174    2.168847    0.489218
     80          1           0        2.492621    2.809606   -3.723764
     81          1           0        0.829579    1.029714   -4.235316
     82          1           0       -1.007380   -0.859231   -4.220940
     83          1           0       -2.642110   -2.656153   -3.685235
     84          1           0       -1.124264    0.779020    4.552439
     85          1           0       -2.971795    2.341541    4.031448
     86          1           0        1.029700   -0.819285    4.543021
     87          1           0        2.887945   -2.368136    3.995964
     88          1           0       -1.970432   -2.093440    0.518695
     89          1           0        2.187494   -1.802948   -0.208781
     90          8           0       -2.853389    7.074797   -2.330895
     91          6           0       -3.868498    7.442630   -3.247993
     92          8           0        8.630751    3.261529   -3.022664
     93          6           0        9.188953    2.031526   -3.440936
     94          8           0       -8.669403   -3.082416   -2.994789
     95          8           0        2.936650   -7.011228   -2.355209
     96          6           0        3.966515   -7.369757   -3.258163
     97          6           0       -9.498097   -4.222599   -3.108693
     98          1           0       -7.019972   -1.165298   -2.754914
     99          1           0       -4.672906   -1.289910   -1.993392
    100          1           0        5.557942   -3.900885   -0.201363
    101          1           0        5.281910   -5.631539   -1.922472
    102          1           0       -7.400860   -5.416301   -2.269187
    103          1           0       -5.071767   -5.549064   -1.545916
    104          1           0        1.217982   -6.240679   -0.646302
    105          1           0        1.511985   -4.519495    1.097860
    106          1           0       -5.539760    4.010733   -0.195064
    107          1           0       -5.216862    5.719738   -1.926412
    108          1           0       -1.166174    6.297778   -0.593066
    109          1           0       -1.502439    4.590248    1.153971
    110          1           0        6.852622    1.161810   -2.872112
    111          1           0        4.543279    1.366764   -2.112236
    112          1           0        7.440819    5.373085   -2.263655
    113          1           0        5.093856    5.592148   -1.522784
    114          1           0        8.655678    1.614950   -4.307181
    115          1           0        9.187413    1.285982   -2.632881
    116          1           0       10.221018    2.247923   -3.725643
    117          1           0        4.839223   -7.784108   -2.734592
    118          1           0        4.289934   -6.513605   -3.866183
    119          1           0        3.543978   -8.135783   -3.911986
    120          1           0      -10.465491   -3.860255   -3.463415
    121          1           0       -9.634981   -4.726219   -2.141073
    122          1           0       -9.097571   -4.947585   -3.831404
    123          1           0       -4.742339    7.867522   -2.735545
    124          1           0       -4.192946    6.588549   -3.858121
    125          1           0       -3.428959    8.202405   -3.897736
    126          1           0        3.029577    6.259927    2.466379
    127          8           0        3.940164    3.965352    1.304644
    128          1           0        1.665612    7.937399    1.286163
    129          1           0        1.047373    7.641880   -1.080859
    130          8           0        1.806603    5.493418   -2.578649
    131          8           0       -5.111556    0.844615    1.494399
    132          1           0       -7.499768    0.788018    2.782279
    133          1           0       -8.474088    2.716724    3.974123
    134          1           0       -7.228556    4.889899    4.071128
    135          8           0       -4.946993    5.373466    3.007140
    136          1           0       -2.976711   -6.190006    2.490286
    137          8           0       -3.947390   -3.902528    1.365473
    138          1           0       -1.602039   -7.831630    1.273982
    139          1           0       -1.025109   -7.503158   -1.099556
    140          8           0       -1.843520   -5.353081   -2.564040
    141          8           0        5.196667   -0.814272    1.358874
    142          1           0        7.524241   -0.761755    2.771386
    143          1           0        8.328570   -2.640301    4.151418
    144          1           0        7.017130   -4.718328    4.356471
    145          8           0        4.607281   -5.108340    3.143420
    146          6           0       -1.024314   -6.250245   -3.302507
    147          6           0        5.865691    0.436495    1.280219
    148          6           0        1.005851    6.421088   -3.300245
    149          6           0       -5.752908   -0.420719    1.423491
    150          1           0       -0.967048   -5.832062   -4.308976
    151          1           0       -1.470430   -7.252292   -3.352823
    152          1           0       -0.013605   -6.321096   -2.882693
    153          1           0       -6.715378   -0.356044    0.899839
    154          1           0       -5.915860   -0.839839    2.425687
    155          1           0       -5.081386   -1.071227    0.862001
    156          1           0        1.477714    7.411673   -3.340052
    157          1           0       -0.000534    6.511888   -2.874065
    158          1           0        0.932648    6.017852   -4.311799
    159          1           0        5.243724    1.075494    0.652450
    160          1           0        6.857964    0.335549    0.821431
    161          1           0        5.974057    0.891679    2.273755
    162          6           0        5.047023   -6.232785    3.885792
    163          1           0        4.259303   -6.981361    3.783514
    164          1           0        5.181551   -5.990247    4.948567
    165          1           0        5.986524   -6.637971    3.487581
    166          6           0       -4.311254   -4.063617    2.728057
    167          1           0       -4.898439   -3.180279    2.984098
    168          1           0       -3.428939   -4.112237    3.379010
    169          1           0       -4.922771   -4.962837    2.877470
    170          6           0        4.338247    4.109920    2.659371
    171          1           0        4.913722    3.213470    2.895989
    172          1           0        4.970483    4.996013    2.800452
    173          1           0        3.472389    4.170899    3.331148
    174          6           0       -3.789992    5.468945    3.836115
    175          1           0       -4.029242    5.195868    4.873230
    176          1           0       -3.478370    6.515349    3.800118
    177          1           0       -2.973276    4.836704    3.472778
 ---------------------------------------------------------------------
 Rotational constants (GHZ):      0.0168010      0.0152467      0.0102352
 Leave Link  202 at Tue Feb  3 00:21:34 2015, MaxMem= 2147483648 cpu:       0.3
 (Enter /opt/g09/l301.exe)
 Standard basis: CC-pVDZ (5D, 7F)
 Ernie: Thresh=  0.10000D-02 Tol=  0.10000D-05 Strict=F.
 Ernie:  202 primitive shells out of 2602 were deleted.
 There are  1794 symmetry adapted basis functions of A   symmetry.
 Integral buffers will be    131072 words long.
 Raffenetti 2 integral format.
 Two-electron integral symmetry is turned on.
  1794 basis functions,  3865 primitive gaussians,  1895 cartesian basis functions
   355 alpha electrons      355 beta electrons
       nuclear repulsion energy     20107.7388140967 Hartrees.
 IExCor=  402 DFT=T Ex+Corr=B3LYP ExCW=0 ScaHFX=  0.200000
 ScaDFX=  0.800000  0.720000  1.000000  0.810000 ScalE2=  1.000000  1.000000
 IRadAn=      0 IRanWt=     -1 IRanGd=            0 ICorTp=0
 NAtoms=  177 NActive=  177 NUniq=  177 SFac= 7.50D-01 NAtFMM=   80 NAOKFM=T Big=T
 Leave Link  301 at Tue Feb  3 00:21:34 2015, MaxMem= 2147483648 cpu:       1.4
 (Enter /opt/g09/l302.exe)
 NPDir=0 NMtPBC=     1 NCelOv=     1 NCel=       1 NClECP=     1 NCelD=      1
         NCelK=      1 NCelE2=     1 NClLst=     1 CellRange=     0.0.
 One-electron integrals computed using PRISM.
 NBasis=  1794 RedAO= T  NBF=  1794
 NBsUse=  1794 1.00D-06 NBFU=  1794
 Precomputing XC quadrature grid using
 IXCGrd= 2 IRadAn=           0 IRanWt=          -1 IRanGd=           0 AccXCQ= 1.00D-10.
 NRdTot=   11575 NPtTot=     1483054 NUsed=     1566393 NTot=     1566425
 NSgBfM=  1308  1345  1369  1387  1393 NAtAll=   177   177.
 Leave Link  302 at Tue Feb  3 00:22:01 2015, MaxMem= 2147483648 cpu:     645.9
 (Enter /opt/g09/l303.exe)
 DipDrv:  MaxL=1.
 Leave Link  303 at Tue Feb  3 00:22:03 2015, MaxMem= 2147483648 cpu:      44.7
 (Enter /opt/g09/l401.exe)
 Harris functional with IExCor=  402 diagonalized for initial guess.
 ExpMin= 1.22D-01 ExpMax= 1.17D+04 ExpMxC= 4.01D+02 IAcc=1 IRadAn=         1 AccDes= 0.00D+00
 HarFok:  IExCor=  402 AccDes= 0.00D+00 IRadAn=         1 IDoV= 1
 ScaDFX=  1.000000  1.000000  1.000000  1.000000
 FoFCou: FMM=F IPFlag=           0 FMFlag=      100000 FMFlg1=        2001
         NFxFlg=           0 DoJE=T BraDBF=F KetDBF=T FulRan=T
         Omega=  0.000000  0.000000  1.000000  0.000000  0.000000 ICntrl=     500 IOpCl=  0
         NMat0=    1 NMatS0=    1 NMatT0=    0 NMatD0=    1 NMtDS0=    0 NMtDT0=    0
         I1Cent=           4 NGrid=           0.
 Petite list used in FoFCou.
 Harris En= -4406.74268480104    
 Initial guess orbital symmetries:
       Occupied  (A) (A) (A) (A) (A) (A) (A) (A) (A) (A) (A) (A)
                 (A) (A) (A) (A) (A) (A) (A) (A) (A) (A) (A) (A)
                 (A) (A) (A) (A) (A) (A) (A) (A) (A) (A) (A) (A)
                 (A) (A) (A) (A) (A) (A) (A) (A) (A) (A) (A) (A)
                 (A) (A) (A) (A) (A) (A) (A) (A) (A) (A) (A) (A)
                 (A) (A) (A) (A) (A) (A) (A) (A) (A) (A) (A) (A)
                 (A) (A) (A) (A) (A) (A) (A) (A) (A) (A) (A) (A)
                 (A) (A) (A) (A) (A) (A) (A) (A) (A) (A) (A) (A)
                 (A) (A) (A) (A) (A) (A) (A) (A) (A) (A) (A) (A)
                 (A) (A) (A) (A) (A) (A) (A) (A) (A) (A) (A) (A)
                 (A) (A) (A) (A) (A) (A) (A) (A) (A) (A) (A) (A)
                 (A) (A) (A) (A) (A) (A) (A) (A) (A) (A) (A) (A)
                 (A) (A) (A) (A) (A) (A) (A) (A) (A) (A) (A) (A)
                 (A) (A) (A) (A) (A) (A) (A) (A) (A) (A) (A) (A)
                 (A) (A) (A) (A) (A) (A) (A) (A) (A) (A) (A) (A)
                 (A) (A) (A) (A) (A) (A) (A) (A) (A) (A) (A) (A)
                 (A) (A) (A) (A) (A) (A) (A) (A) (A) (A) (A) (A)
                 (A) (A) (A) (A) (A) (A) (A) (A) (A) (A) (A) (A)
                 (A) (A) (A) (A) (A) (A) (A) (A) (A) (A) (A) (A)
                 (A) (A) (A) (A) (A) (A) (A) (A) (A) (A) (A) (A)
                 (A) (A) (A) (A) (A) (A) (A) (A) (A) (A) (A) (A)
                 (A) (A) (A) (A) (A) (A) (A) (A) (A) (A) (A) (A)
                 (A) (A) (A) (A) (A) (A) (A) (A) (A) (A) (A) (A)
                 (A) (A) (A) (A) (A) (A) (A) (A) (A) (A) (A) (A)
                 (A) (A) (A) (A) (A) (A) (A) (A) (A) (A) (A) (A)
                 (A) (A) (A) (A) (A) (A) (A) (A) (A) (A) (A) (A)
                 (A) (A) (A) (A) (A) (A) (A) (A) (A) (A) (A) (A)
                 (A) (A) (A) (A) (A) (A) (A) (A) (A) (A) (A) (A)
                 (A) (A) (A) (A) (A) (A) (A) (A) (A) (A) (A) (A)
                 (A) (A) (A) (A) (A) (A) (A)
       Virtual   (A) (A) (A) (A) (A) (A) (A) (A) (A) (A) (A) (A)
                 (A) (A) (A) (A) (A) (A) (A) (A) (A) (A) (A) (A)
                 (A) (A) (A) (A) (A) (A) (A) (A) (A) (A) (A) (A)
                 (A) (A) (A) (A) (A) (A) (A) (A) (A) (A) (A) (A)
                 (A) (A) (A) (A) (A) (A) (A) (A) (A) (A) (A) (A)
                 (A) (A) (A) (A) (A) (A) (A) (A) (A) (A) (A) (A)
                 (A) (A) (A) (A) (A) (A) (A) (A) (A) (A) (A) (A)
                 (A) (A) (A) (A) (A) (A) (A) (A) (A) (A) (A) (A)
                 (A) (A) (A) (A) (A) (A) (A) (A) (A) (A) (A) (A)
                 (A) (A) (A) (A) (A) (A) (A) (A) (A) (A) (A) (A)
                 (A) (A) (A) (A) (A) (A) (A) (A) (A) (A) (A) (A)
                 (A) (A) (A) (A) (A) (A) (A) (A) (A) (A) (A) (A)
                 (A) (A) (A) (A) (A) (A) (A) (A) (A) (A) (A) (A)
                 (A) (A) (A) (A) (A) (A) (A) (A) (A) (A) (A) (A)
                 (A) (A) (A) (A) (A) (A) (A) (A) (A) (A) (A) (A)
                 (A) (A) (A) (A) (A) (A) (A) (A) (A) (A) (A) (A)
                 (A) (A) (A) (A) (A) (A) (A) (A) (A) (A) (A) (A)
                 (A) (A) (A) (A) (A) (A) (A) (A) (A) (A) (A) (A)
                 (A) (A) (A) (A) (A) (A) (A) (A) (A) (A) (A) (A)
                 (A) (A) (A) (A) (A) (A) (A) (A) (A) (A) (A) (A)
                 (A) (A) (A) (A) (A) (A) (A) (A) (A) (A) (A) (A)
                 (A) (A) (A) (A) (A) (A) (A) (A) (A) (A) (A) (A)
                 (A) (A) (A) (A) (A) (A) (A) (A) (A) (A) (A) (A)
                 (A) (A) (A) (A) (A) (A) (A) (A) (A) (A) (A) (A)
                 (A) (A) (A) (A) (A) (A) (A) (A) (A) (A) (A) (A)
                 (A) (A) (A) (A) (A) (A) (A) (A) (A) (A) (A) (A)
                 (A) (A) (A) (A) (A) (A) (A) (A) (A) (A) (A) (A)
                 (A) (A) (A) (A) (A) (A) (A) (A) (A) (A) (A) (A)
                 (A) (A) (A) (A) (A) (A) (A) (A) (A) (A) (A) (A)
                 (A) (A) (A) (A) (A) (A) (A) (A) (A) (A) (A) (A)
                 (A) (A) (A) (A) (A) (A) (A) (A) (A) (A) (A) (A)
                 (A) (A) (A) (A) (A) (A) (A) (A) (A) (A) (A) (A)
                 (A) (A) (A) (A) (A) (A) (A) (A) (A) (A) (A) (A)
                 (A) (A) (A) (A) (A) (A) (A) (A) (A) (A) (A) (A)
                 (A) (A) (A) (A) (A) (A) (A) (A) (A) (A) (A) (A)
                 (A) (A) (A) (A) (A) (A) (A) (A) (A) (A) (A) (A)
                 (A) (A) (A) (A) (A) (A) (A) (A) (A) (A) (A) (A)
                 (A) (A) (A) (A) (A) (A) (A) (A) (A) (A) (A) (A)
                 (A) (A) (A) (A) (A) (A) (A) (A) (A) (A) (A) (A)
                 (A) (A) (A) (A) (A) (A) (A) (A) (A) (A) (A) (A)
                 (A) (A) (A) (A) (A) (A) (A) (A) (A) (A) (A) (A)
                 (A) (A) (A) (A) (A) (A) (A) (A) (A) (A) (A) (A)
                 (A) (A) (A) (A) (A) (A) (A) (A) (A) (A) (A) (A)
                 (A) (A) (A) (A) (A) (A) (A) (A) (A) (A) (A) (A)
                 (A) (A) (A) (A) (A) (A) (A) (A) (A) (A) (A) (A)
                 (A) (A) (A) (A) (A) (A) (A) (A) (A) (A) (A) (A)
                 (A) (A) (A) (A) (A) (A) (A) (A) (A) (A) (A) (A)
                 (A) (A) (A) (A) (A) (A) (A) (A) (A) (A) (A) (A)
                 (A) (A) (A) (A) (A) (A) (A) (A) (A) (A) (A) (A)
                 (A) (A) (A) (A) (A) (A) (A) (A) (A) (A) (A) (A)
                 (A) (A) (A) (A) (A) (A) (A) (A) (A) (A) (A) (A)
                 (A) (A) (A) (A) (A) (A) (A) (A) (A) (A) (A) (A)
                 (A) (A) (A) (A) (A) (A) (A) (A) (A) (A) (A) (A)
                 (A) (A) (A) (A) (A) (A) (A) (A) (A) (A) (A) (A)
                 (A) (A) (A) (A) (A) (A) (A) (A) (A) (A) (A) (A)
                 (A) (A) (A) (A) (A) (A) (A) (A) (A) (A) (A) (A)
                 (A) (A) (A) (A) (A) (A) (A) (A) (A) (A) (A) (A)
                 (A) (A) (A) (A) (A) (A) (A) (A) (A) (A) (A) (A)
                 (A) (A) (A) (A) (A) (A) (A) (A) (A) (A) (A) (A)
                 (A) (A) (A) (A) (A) (A) (A) (A) (A) (A) (A) (A)
                 (A) (A) (A) (A) (A) (A) (A) (A) (A) (A) (A) (A)
                 (A) (A) (A) (A) (A) (A) (A) (A) (A) (A) (A) (A)
                 (A) (A) (A) (A) (A) (A) (A) (A) (A) (A) (A) (A)
                 (A) (A) (A) (A) (A) (A) (A) (A) (A) (A) (A) (A)
                 (A) (A) (A) (A) (A) (A) (A) (A) (A) (A) (A) (A)
                 (A) (A) (A) (A) (A) (A) (A) (A) (A) (A) (A) (A)
                 (A) (A) (A) (A) (A) (A) (A) (A) (A) (A) (A) (A)
                 (A) (A) (A) (A) (A) (A) (A) (A) (A) (A) (A) (A)
                 (A) (A) (A) (A) (A) (A) (A) (A) (A) (A) (A) (A)
                 (A) (A) (A) (A) (A) (A) (A) (A) (A) (A) (A) (A)
                 (A) (A) (A) (A) (A) (A) (A) (A) (A) (A) (A) (A)
                 (A) (A) (A) (A) (A) (A) (A) (A) (A) (A) (A) (A)
                 (A) (A) (A) (A) (A) (A) (A) (A) (A) (A) (A) (A)
                 (A) (A) (A) (A) (A) (A) (A) (A) (A) (A) (A) (A)
                 (A) (A) (A) (A) (A) (A) (A) (A) (A) (A) (A) (A)
                 (A) (A) (A) (A) (A) (A) (A) (A) (A) (A) (A) (A)
                 (A) (A) (A) (A) (A) (A) (A) (A) (A) (A) (A) (A)
                 (A) (A) (A) (A) (A) (A) (A) (A) (A) (A) (A) (A)
                 (A) (A) (A) (A) (A) (A) (A) (A) (A) (A) (A) (A)
                 (A) (A) (A) (A) (A) (A) (A) (A) (A) (A) (A) (A)
                 (A) (A) (A) (A) (A) (A) (A) (A) (A) (A) (A) (A)
                 (A) (A) (A) (A) (A) (A) (A) (A) (A) (A) (A) (A)
                 (A) (A) (A) (A) (A) (A) (A) (A) (A) (A) (A) (A)
                 (A) (A) (A) (A) (A) (A) (A) (A) (A) (A) (A) (A)
                 (A) (A) (A) (A) (A) (A) (A) (A) (A) (A) (A) (A)
                 (A) (A) (A) (A) (A) (A) (A) (A) (A) (A) (A) (A)
                 (A) (A) (A) (A) (A) (A) (A) (A) (A) (A) (A) (A)
                 (A) (A) (A) (A) (A) (A) (A) (A) (A) (A) (A) (A)
                 (A) (A) (A) (A) (A) (A) (A) (A) (A) (A) (A) (A)
                 (A) (A) (A) (A) (A) (A) (A) (A) (A) (A) (A) (A)
                 (A) (A) (A) (A) (A) (A) (A) (A) (A) (A) (A) (A)
                 (A) (A) (A) (A) (A) (A) (A) (A) (A) (A) (A) (A)
                 (A) (A) (A) (A) (A) (A) (A) (A) (A) (A) (A) (A)
                 (A) (A) (A) (A) (A) (A) (A) (A) (A) (A) (A) (A)
                 (A) (A) (A) (A) (A) (A) (A) (A) (A) (A) (A) (A)
                 (A) (A) (A) (A) (A) (A) (A) (A) (A) (A) (A) (A)
                 (A) (A) (A) (A) (A) (A) (A) (A) (A) (A) (A) (A)
                 (A) (A) (A) (A) (A) (A) (A) (A) (A) (A) (A) (A)
                 (A) (A) (A) (A) (A) (A) (A) (A) (A) (A) (A) (A)
                 (A) (A) (A) (A) (A) (A) (A) (A) (A) (A) (A) (A)
                 (A) (A) (A) (A) (A) (A) (A) (A) (A) (A) (A) (A)
                 (A) (A) (A) (A) (A) (A) (A) (A) (A) (A) (A) (A)
                 (A) (A) (A) (A) (A) (A) (A) (A) (A) (A) (A) (A)
                 (A) (A) (A) (A) (A) (A) (A) (A) (A) (A) (A) (A)
                 (A) (A) (A) (A) (A) (A) (A) (A) (A) (A) (A) (A)
                 (A) (A) (A) (A) (A) (A) (A) (A) (A) (A) (A) (A)
                 (A) (A) (A) (A) (A) (A) (A) (A) (A) (A) (A) (A)
                 (A) (A) (A) (A) (A) (A) (A) (A) (A) (A) (A) (A)
                 (A) (A) (A) (A) (A) (A) (A) (A) (A) (A) (A) (A)
                 (A) (A) (A) (A) (A) (A) (A) (A) (A) (A) (A) (A)
                 (A) (A) (A) (A) (A) (A) (A) (A) (A) (A) (A) (A)
                 (A) (A) (A) (A) (A) (A) (A) (A) (A) (A) (A) (A)
                 (A) (A) (A) (A) (A) (A) (A) (A) (A) (A) (A) (A)
                 (A) (A) (A) (A) (A) (A) (A) (A) (A) (A) (A) (A)
                 (A) (A) (A) (A) (A) (A) (A) (A) (A) (A) (A) (A)
                 (A) (A) (A) (A) (A) (A) (A) (A) (A) (A) (A) (A)
                 (A) (A) (A) (A) (A) (A) (A) (A) (A) (A) (A) (A)
                 (A) (A) (A) (A) (A) (A) (A) (A) (A) (A) (A) (A)
                 (A) (A) (A) (A) (A) (A) (A) (A) (A) (A) (A) (A)
                 (A) (A) (A) (A) (A) (A) (A) (A) (A) (A) (A)
 The electronic state of the initial guess is 1-A.
 Leave Link  401 at Tue Feb  3 00:22:30 2015, MaxMem= 2147483648 cpu:     641.5
 (Enter /opt/g09/l502.exe)
 Closed shell SCF:
 Requested convergence on RMS density matrix=1.00D-08 within 128 cycles.
 Requested convergence on MAX density matrix=1.00D-06.
 Requested convergence on             energy=1.00D-06.
 No special actions if energy rises.
 Using DIIS extrapolation, IDIIS=  1040.
 Integral symmetry usage will be decided dynamically.
      1564787 words used for storage of precomputed grid.
 IEnd=    12415840 IEndB=    12415840 NGot=  2147483648 MDV=  2138677369
 LenX=  2138677369 LenY=  2135084449
 Fock matrices will be formed incrementally for  20 cycles.
 Integral accuracy reduced to 1.0D-05 until final iterations.

 Cycle   1  Pass 0  IDiag  1:
 FoFCou: FMM=T IPFlag=           0 FMFlag=      100000 FMFlg1=        2001
         NFxFlg=           0 DoJE=F BraDBF=F KetDBF=F FulRan=T
         Omega=  0.000000  0.000000  1.000000  0.000000  0.000000 ICntrl=       0 IOpCl=  0
         NMat0=    1 NMatS0=    1 NMatT0=    0 NMatD0=    1 NMtDS0=    0 NMtDT0=    0
         I1Cent=           0 NGrid=           0.
 Symmetry not used in FoFCou.
 FMM levels:  10  Number of levels for PrismC:   9
 E= -4404.67483083619    
 DIIS: error= 1.90D-02 at cycle   1 NSaved=   1.
 NSaved= 1 IEnMin= 1 EnMin= -4404.67483083619     IErMin= 1 ErrMin= 1.90D-02
 ErrMax= 1.90D-02 EMaxC= 1.00D-01 BMatC= 1.70D+00 BMatP= 1.70D+00
 IDIUse=3 WtCom= 8.10D-01 WtEn= 1.90D-01
 Coeff-Com:  0.100D+01
 Coeff-En:   0.100D+01
 Coeff:      0.100D+01
 Gap=     0.152 Goal=   None    Shift=    0.000
 GapD=    0.152 DampG=1.000 DampE=0.500 DampFc=0.5000 IDamp=-1.
 Damping current iteration by 5.00D-01
 RMSDP=2.07D-03 MaxDP=1.89D-01              OVMax= 2.22D-01

 Cycle   2  Pass 0  IDiag  1:
 RMSU=  7.01D-04    CP:  9.64D-01
 E= -4405.57377886321     Delta-E=       -0.898948027021 Rises=F Damp=T
 DIIS: error= 4.10D-03 at cycle   2 NSaved=   2.
 NSaved= 2 IEnMin= 2 EnMin= -4405.57377886321     IErMin= 2 ErrMin= 4.10D-03
 ErrMax= 4.10D-03 EMaxC= 1.00D-01 BMatC= 9.75D-02 BMatP= 1.70D+00
 IDIUse=3 WtCom= 9.59D-01 WtEn= 4.10D-02
 Coeff-Com:  0.287D-01 0.971D+00
 Coeff-En:   0.242D-01 0.976D+00
 Coeff:      0.285D-01 0.971D+00
 Gap=     0.138 Goal=   None    Shift=    0.000
 RMSDP=6.47D-04 MaxDP=1.01D-01 DE=-8.99D-01 OVMax= 1.76D-01

 Cycle   3  Pass 0  IDiag  1:
 RMSU=  4.09D-04    CP:  9.42D-01  1.23D+00
 E= -4406.46505773985     Delta-E=       -0.891278876632 Rises=F Damp=F
 DIIS: error= 4.45D-03 at cycle   3 NSaved=   3.
 NSaved= 3 IEnMin= 3 EnMin= -4406.46505773985     IErMin= 2 ErrMin= 4.10D-03
 ErrMax= 4.45D-03 EMaxC= 1.00D-01 BMatC= 1.29D-01 BMatP= 9.75D-02
 IDIUse=3 WtCom= 1.30D-01 WtEn= 8.70D-01
 Coeff-Com: -0.287D-01 0.555D+00 0.474D+00
 Coeff-En:   0.000D+00 0.000D+00 0.100D+01
 Coeff:     -0.374D-02 0.723D-01 0.931D+00
 Gap=     0.160 Goal=   None    Shift=    0.000
 RMSDP=6.74D-04 MaxDP=7.90D-02 DE=-8.91D-01 OVMax= 1.87D-01

 Cycle   4  Pass 0  IDiag  1:
 RMSU=  3.45D-04    CP:  9.44D-01  1.27D+00  1.99D-01
 E= -4406.05859570501     Delta-E=        0.406462034833 Rises=F Damp=F
 DIIS: error= 9.39D-03 at cycle   4 NSaved=   4.
 NSaved= 4 IEnMin= 3 EnMin= -4406.46505773985     IErMin= 2 ErrMin= 4.10D-03
 ErrMax= 9.39D-03 EMaxC= 1.00D-01 BMatC= 5.03D-01 BMatP= 9.75D-02
 IDIUse=3 WtCom= 9.35D-02 WtEn= 9.06D-01
 Coeff-Com: -0.119D-02 0.150D+00 0.596D+00 0.256D+00
 Coeff-En:   0.000D+00 0.000D+00 0.742D+00 0.258D+00
 Coeff:     -0.111D-03 0.140D-01 0.728D+00 0.258D+00
 Gap=     0.138 Goal=   None    Shift=    0.000
 RMSDP=3.65D-04 MaxDP=4.44D-02 DE= 4.06D-01 OVMax= 9.66D-02

 Cycle   5  Pass 0  IDiag  1:
 RMSU=  5.24D-05    CP:  9.44D-01  1.23D+00  5.87D-01  4.35D-01
 E= -4406.57696954138     Delta-E=       -0.518373836363 Rises=F Damp=F
 DIIS: error= 2.04D-03 at cycle   5 NSaved=   5.
 NSaved= 5 IEnMin= 5 EnMin= -4406.57696954138     IErMin= 5 ErrMin= 2.04D-03
 ErrMax= 2.04D-03 EMaxC= 1.00D-01 BMatC= 2.50D-02 BMatP= 9.75D-02
 IDIUse=3 WtCom= 9.80D-01 WtEn= 2.04D-02
 Coeff-Com:  0.526D-02 0.213D-01 0.373D+00 0.717D-01 0.528D+00
 Coeff-En:   0.000D+00 0.000D+00 0.202D+00 0.000D+00 0.798D+00
 Coeff:      0.516D-02 0.209D-01 0.370D+00 0.702D-01 0.534D+00
 Gap=     0.132 Goal=   None    Shift=    0.000
 RMSDP=1.03D-04 MaxDP=1.14D-02 DE=-5.18D-01 OVMax= 2.44D-02

 Cycle   6  Pass 0  IDiag  1:
 RMSU=  2.48D-05    CP:  9.43D-01  1.22D+00  7.04D-01  3.14D-01  5.37D-01
 E= -4406.60224417796     Delta-E=       -0.025274636580 Rises=F Damp=F
 DIIS: error= 4.78D-04 at cycle   6 NSaved=   6.
 NSaved= 6 IEnMin= 6 EnMin= -4406.60224417796     IErMin= 6 ErrMin= 4.78D-04
 ErrMax= 4.78D-04 EMaxC= 1.00D-01 BMatC= 7.71D-04 BMatP= 2.50D-02
 IDIUse=3 WtCom= 9.95D-01 WtEn= 4.78D-03
 Coeff-Com:  0.270D-02-0.881D-02 0.110D+00-0.188D-01 0.356D+00 0.558D+00
 Coeff-En:   0.000D+00 0.000D+00 0.000D+00 0.000D+00 0.000D+00 0.100D+01
 Coeff:      0.269D-02-0.877D-02 0.110D+00-0.187D-01 0.355D+00 0.560D+00
 Gap=     0.132 Goal=   None    Shift=    0.000
 RMSDP=2.08D-05 MaxDP=1.55D-03 DE=-2.53D-02 OVMax= 5.26D-03

 Cycle   7  Pass 0  IDiag  1:
 RMSU=  7.30D-06    CP:  9.43D-01  1.23D+00  7.08D-01  3.11D-01  6.81D-01
                    CP:  5.98D-01
 E= -4406.60303296079     Delta-E=       -0.000788782836 Rises=F Damp=F
 DIIS: error= 1.81D-04 at cycle   7 NSaved=   7.
 NSaved= 7 IEnMin= 7 EnMin= -4406.60303296079     IErMin= 7 ErrMin= 1.81D-04
 ErrMax= 1.81D-04 EMaxC= 1.00D-01 BMatC= 6.94D-05 BMatP= 7.71D-04
 IDIUse=3 WtCom= 9.98D-01 WtEn= 1.81D-03
 Coeff-Com:  0.137D-02-0.599D-02 0.509D-01-0.170D-01 0.202D+00 0.358D+00
 Coeff-Com:  0.411D+00
 Coeff-En:   0.000D+00 0.000D+00 0.000D+00 0.000D+00 0.000D+00 0.000D+00
 Coeff-En:   0.100D+01
 Coeff:      0.137D-02-0.598D-02 0.508D-01-0.170D-01 0.201D+00 0.358D+00
 Coeff:      0.412D+00
 Gap=     0.132 Goal=   None    Shift=    0.000
 RMSDP=6.75D-06 MaxDP=5.78D-04 DE=-7.89D-04 OVMax= 1.70D-03

 Initial convergence to 1.0D-05 achieved.  Increase integral accuracy.
 Cycle   8  Pass 1  IDiag  1:
 E= -4406.60243965908     Delta-E=        0.000593301716 Rises=F Damp=F
 DIIS: error= 3.56D-04 at cycle   1 NSaved=   1.
 NSaved= 1 IEnMin= 1 EnMin= -4406.60243965908     IErMin= 1 ErrMin= 3.56D-04
 ErrMax= 3.56D-04 EMaxC= 1.00D-01 BMatC= 1.60D-04 BMatP= 1.60D-04
 IDIUse=3 WtCom= 9.96D-01 WtEn= 3.56D-03
 Coeff-Com:  0.100D+01
 Coeff-En:   0.100D+01
 Coeff:      0.100D+01
 Gap=     0.132 Goal=   None    Shift=    0.000
 RMSDP=6.75D-06 MaxDP=5.78D-04 DE= 5.93D-04 OVMax= 1.90D-03

 Cycle   9  Pass 1  IDiag  1:
 RMSU=  1.31D-04    CP:  9.99D-01
 E= -4406.60253993670     Delta-E=       -0.000100277619 Rises=F Damp=F
 DIIS: error= 2.01D-04 at cycle   2 NSaved=   2.
 NSaved= 2 IEnMin= 2 EnMin= -4406.60253993670     IErMin= 2 ErrMin= 2.01D-04
 ErrMax= 2.01D-04 EMaxC= 1.00D-01 BMatC= 4.14D-05 BMatP= 1.60D-04
 IDIUse=3 WtCom= 9.98D-01 WtEn= 2.01D-03
 Coeff-Com:  0.244D+00 0.756D+00
 Coeff-En:   0.000D+00 0.100D+01
 Coeff:      0.243D+00 0.757D+00
 Gap=     0.132 Goal=   None    Shift=    0.000
 RMSDP=1.19D-05 MaxDP=1.87D-03 DE=-1.00D-04 OVMax= 3.47D-03

 Cycle  10  Pass 1  IDiag  1:
 RMSU=  8.38D-06    CP:  9.99D-01  1.00D+00
 E= -4406.60244399841     Delta-E=        0.000095938285 Rises=F Damp=F
 DIIS: error= 3.61D-04 at cycle   3 NSaved=   3.
 NSaved= 3 IEnMin= 2 EnMin= -4406.60253993670     IErMin= 2 ErrMin= 2.01D-04
 ErrMax= 3.61D-04 EMaxC= 1.00D-01 BMatC= 1.26D-04 BMatP= 4.14D-05
 IDIUse=3 WtCom= 3.45D-01 WtEn= 6.55D-01
 Coeff-Com: -0.255D-02 0.638D+00 0.365D+00
 Coeff-En:   0.000D+00 0.689D+00 0.311D+00
 Coeff:     -0.879D-03 0.671D+00 0.330D+00
 Gap=     0.132 Goal=   None    Shift=    0.000
 RMSDP=6.61D-06 MaxDP=9.00D-04 DE= 9.59D-05 OVMax= 2.02D-03

 Cycle  11  Pass 1  IDiag  1:
 RMSU=  5.78D-07    CP:  9.99D-01  1.01D+00  4.51D-01
 E= -4406.60258330028     Delta-E=       -0.000139301868 Rises=F Damp=F
 DIIS: error= 4.39D-05 at cycle   4 NSaved=   4.
 NSaved= 4 IEnMin= 4 EnMin= -4406.60258330028     IErMin= 4 ErrMin= 4.39D-05
 ErrMax= 4.39D-05 EMaxC= 1.00D-01 BMatC= 2.74D-06 BMatP= 4.14D-05
 IDIUse=1 WtCom= 1.00D+00 WtEn= 0.00D+00
 Coeff-Com: -0.356D-02 0.410D+00 0.179D+00 0.414D+00
 Coeff:     -0.356D-02 0.410D+00 0.179D+00 0.414D+00
 Gap=     0.132 Goal=   None    Shift=    0.000
 RMSDP=1.09D-06 MaxDP=1.55D-04 DE=-1.39D-04 OVMax= 2.84D-04

 Cycle  12  Pass 1  IDiag  1:
 RMSU=  2.21D-07    CP:  9.99D-01  1.01D+00  3.66D-01  6.42D-01
 E= -4406.60258626653     Delta-E=       -0.000002966255 Rises=F Damp=F
 DIIS: error= 2.40D-06 at cycle   5 NSaved=   5.
 NSaved= 5 IEnMin= 5 EnMin= -4406.60258626653     IErMin= 5 ErrMin= 2.40D-06
 ErrMax= 2.40D-06 EMaxC= 1.00D-01 BMatC= 1.40D-08 BMatP= 2.74D-06
 IDIUse=1 WtCom= 1.00D+00 WtEn= 0.00D+00
 Coeff-Com: -0.184D-02 0.195D+00 0.810D-01 0.229D+00 0.497D+00
 Coeff:     -0.184D-02 0.195D+00 0.810D-01 0.229D+00 0.497D+00
 Gap=     0.132 Goal=   None    Shift=    0.000
 RMSDP=1.08D-07 MaxDP=8.91D-06 DE=-2.97D-06 OVMax= 2.60D-05

 Cycle  13  Pass 1  IDiag  1:
 RMSU=  6.31D-08    CP:  9.99D-01  1.01D+00  3.66D-01  6.62D-01  8.14D-01
 E= -4406.60258627975     Delta-E=       -0.000000013217 Rises=F Damp=F
 DIIS: error= 7.75D-07 at cycle   6 NSaved=   6.
 NSaved= 6 IEnMin= 6 EnMin= -4406.60258627975     IErMin= 6 ErrMin= 7.75D-07
 ErrMax= 7.75D-07 EMaxC= 1.00D-01 BMatC= 2.71D-09 BMatP= 1.40D-08
 IDIUse=1 WtCom= 1.00D+00 WtEn= 0.00D+00
 Coeff-Com: -0.806D-03 0.823D-01 0.334D-01 0.103D+00 0.326D+00 0.457D+00
 Coeff:     -0.806D-03 0.823D-01 0.334D-01 0.103D+00 0.326D+00 0.457D+00
 Gap=     0.132 Goal=   None    Shift=    0.000
 RMSDP=4.47D-08 MaxDP=4.69D-06 DE=-1.32D-08 OVMax= 1.34D-05

 Cycle  14  Pass 1  IDiag  1:
 RMSU=  2.25D-08    CP:  9.99D-01  1.01D+00  3.66D-01  6.62D-01  8.57D-01
                    CP:  6.85D-01
 E= -4406.60258628174     Delta-E=       -0.000000001990 Rises=F Damp=F
 DIIS: error= 2.13D-07 at cycle   7 NSaved=   7.
 NSaved= 7 IEnMin= 7 EnMin= -4406.60258628174     IErMin= 7 ErrMin= 2.13D-07
 ErrMax= 2.13D-07 EMaxC= 1.00D-01 BMatC= 3.18D-10 BMatP= 2.71D-09
 IDIUse=1 WtCom= 1.00D+00 WtEn= 0.00D+00
 Coeff-Com: -0.147D-03 0.136D-01 0.528D-02 0.193D-01 0.104D+00 0.288D+00
 Coeff-Com:  0.570D+00
 Coeff:     -0.147D-03 0.136D-01 0.528D-02 0.193D-01 0.104D+00 0.288D+00
 Coeff:      0.570D+00
 Gap=     0.132 Goal=   None    Shift=    0.000
 RMSDP=1.40D-08 MaxDP=2.30D-06 DE=-1.99D-09 OVMax= 3.19D-06

 Cycle  15  Pass 1  IDiag  1:
 RMSU=  6.05D-09    CP:  9.99D-01  1.01D+00  3.66D-01  6.64D-01  8.58D-01
                    CP:  7.47D-01  7.14D-01
 E= -4406.60258628232     Delta-E=       -0.000000000582 Rises=F Damp=F
 DIIS: error= 8.95D-08 at cycle   8 NSaved=   8.
 NSaved= 8 IEnMin= 8 EnMin= -4406.60258628232     IErMin= 8 ErrMin= 8.95D-08
 ErrMax= 8.95D-08 EMaxC= 1.00D-01 BMatC= 2.56D-11 BMatP= 3.18D-10
 IDIUse=1 WtCom= 1.00D+00 WtEn= 0.00D+00
 Coeff-Com:  0.191D-04-0.276D-02-0.120D-02-0.274D-02 0.149D-01 0.101D+00
 Coeff-Com:  0.305D+00 0.585D+00
 Coeff:      0.191D-04-0.276D-02-0.120D-02-0.274D-02 0.149D-01 0.101D+00
 Coeff:      0.305D+00 0.585D+00
 Gap=     0.132 Goal=   None    Shift=    0.000
 RMSDP=4.23D-09 MaxDP=4.11D-07 DE=-5.82D-10 OVMax= 1.21D-06

 SCF Done:  E(RB3LYP) =  -4406.60258628     A.U. after   15 cycles
             Convg  =    0.4234D-08             -V/T =  2.0065
 KE= 4.378181326504D+03 PE=-5.047678857912D+04 EE= 2.158426585224D+04
 Leave Link  502 at Tue Feb  3 00:52:57 2015, MaxMem= 2147483648 cpu:   43783.4
 (Enter /opt/g09/l601.exe)
 Copying SCF densities to generalized density rwf, IOpCl= 0 IROHF=0.

 **********************************************************************

            Population analysis using the SCF density.

 **********************************************************************

 Orbital symmetries:
       Occupied  (A) (A) (A) (A) (A) (A) (A) (A) (A) (A) (A) (A)
                 (A) (A) (A) (A) (A) (A) (A) (A) (A) (A) (A) (A)
                 (A) (A) (A) (A) (A) (A) (A) (A) (A) (A) (A) (A)
                 (A) (A) (A) (A) (A) (A) (A) (A) (A) (A) (A) (A)
                 (A) (A) (A) (A) (A) (A) (A) (A) (A) (A) (A) (A)
                 (A) (A) (A) (A) (A) (A) (A) (A) (A) (A) (A) (A)
                 (A) (A) (A) (A) (A) (A) (A) (A) (A) (A) (A) (A)
                 (A) (A) (A) (A) (A) (A) (A) (A) (A) (A) (A) (A)
                 (A) (A) (A) (A) (A) (A) (A) (A) (A) (A) (A) (A)
                 (A) (A) (A) (A) (A) (A) (A) (A) (A) (A) (A) (A)
                 (A) (A) (A) (A) (A) (A) (A) (A) (A) (A) (A) (A)
                 (A) (A) (A) (A) (A) (A) (A) (A) (A) (A) (A) (A)
                 (A) (A) (A) (A) (A) (A) (A) (A) (A) (A) (A) (A)
                 (A) (A) (A) (A) (A) (A) (A) (A) (A) (A) (A) (A)
                 (A) (A) (A) (A) (A) (A) (A) (A) (A) (A) (A) (A)
                 (A) (A) (A) (A) (A) (A) (A) (A) (A) (A) (A) (A)
                 (A) (A) (A) (A) (A) (A) (A) (A) (A) (A) (A) (A)
                 (A) (A) (A) (A) (A) (A) (A) (A) (A) (A) (A) (A)
                 (A) (A) (A) (A) (A) (A) (A) (A) (A) (A) (A) (A)
                 (A) (A) (A) (A) (A) (A) (A) (A) (A) (A) (A) (A)
                 (A) (A) (A) (A) (A) (A) (A) (A) (A) (A) (A) (A)
                 (A) (A) (A) (A) (A) (A) (A) (A) (A) (A) (A) (A)
                 (A) (A) (A) (A) (A) (A) (A) (A) (A) (A) (A) (A)
                 (A) (A) (A) (A) (A) (A) (A) (A) (A) (A) (A) (A)
                 (A) (A) (A) (A) (A) (A) (A) (A) (A) (A) (A) (A)
                 (A) (A) (A) (A) (A) (A) (A) (A) (A) (A) (A) (A)
                 (A) (A) (A) (A) (A) (A) (A) (A) (A) (A) (A) (A)
                 (A) (A) (A) (A) (A) (A) (A) (A) (A) (A) (A) (A)
                 (A) (A) (A) (A) (A) (A) (A) (A) (A) (A) (A) (A)
                 (A) (A) (A) (A) (A) (A) (A)
       Virtual   (A) (A) (A) (A) (A) (A) (A) (A) (A) (A) (A) (A)
                 (A) (A) (A) (A) (A) (A) (A) (A) (A) (A) (A) (A)
                 (A) (A) (A) (A) (A) (A) (A) (A) (A) (A) (A) (A)
                 (A) (A) (A) (A) (A) (A) (A) (A) (A) (A) (A) (A)
                 (A) (A) (A) (A) (A) (A) (A) (A) (A) (A) (A) (A)
                 (A) (A) (A) (A) (A) (A) (A) (A) (A) (A) (A) (A)
                 (A) (A) (A) (A) (A) (A) (A) (A) (A) (A) (A) (A)
                 (A) (A) (A) (A) (A) (A) (A) (A) (A) (A) (A) (A)
                 (A) (A) (A) (A) (A) (A) (A) (A) (A) (A) (A) (A)
                 (A) (A) (A) (A) (A) (A) (A) (A) (A) (A) (A) (A)
                 (A) (A) (A) (A) (A) (A) (A) (A) (A) (A) (A) (A)
                 (A) (A) (A) (A) (A) (A) (A) (A) (A) (A) (A) (A)
                 (A) (A) (A) (A) (A) (A) (A) (A) (A) (A) (A) (A)
                 (A) (A) (A) (A) (A) (A) (A) (A) (A) (A) (A) (A)
                 (A) (A) (A) (A) (A) (A) (A) (A) (A) (A) (A) (A)
                 (A) (A) (A) (A) (A) (A) (A) (A) (A) (A) (A) (A)
                 (A) (A) (A) (A) (A) (A) (A) (A) (A) (A) (A) (A)
                 (A) (A) (A) (A) (A) (A) (A) (A) (A) (A) (A) (A)
                 (A) (A) (A) (A) (A) (A) (A) (A) (A) (A) (A) (A)
                 (A) (A) (A) (A) (A) (A) (A) (A) (A) (A) (A) (A)
                 (A) (A) (A) (A) (A) (A) (A) (A) (A) (A) (A) (A)
                 (A) (A) (A) (A) (A) (A) (A) (A) (A) (A) (A) (A)
                 (A) (A) (A) (A) (A) (A) (A) (A) (A) (A) (A) (A)
                 (A) (A) (A) (A) (A) (A) (A) (A) (A) (A) (A) (A)
                 (A) (A) (A) (A) (A) (A) (A) (A) (A) (A) (A) (A)
                 (A) (A) (A) (A) (A) (A) (A) (A) (A) (A) (A) (A)
                 (A) (A) (A) (A) (A) (A) (A) (A) (A) (A) (A) (A)
                 (A) (A) (A) (A) (A) (A) (A) (A) (A) (A) (A) (A)
                 (A) (A) (A) (A) (A) (A) (A) (A) (A) (A) (A) (A)
                 (A) (A) (A) (A) (A) (A) (A) (A) (A) (A) (A) (A)
                 (A) (A) (A) (A) (A) (A) (A) (A) (A) (A) (A) (A)
                 (A) (A) (A) (A) (A) (A) (A) (A) (A) (A) (A) (A)
                 (A) (A) (A) (A) (A) (A) (A) (A) (A) (A) (A) (A)
                 (A) (A) (A) (A) (A) (A) (A) (A) (A) (A) (A) (A)
                 (A) (A) (A) (A) (A) (A) (A) (A) (A) (A) (A) (A)
                 (A) (A) (A) (A) (A) (A) (A) (A) (A) (A) (A) (A)
                 (A) (A) (A) (A) (A) (A) (A) (A) (A) (A) (A) (A)
                 (A) (A) (A) (A) (A) (A) (A) (A) (A) (A) (A) (A)
                 (A) (A) (A) (A) (A) (A) (A) (A) (A) (A) (A) (A)
                 (A) (A) (A) (A) (A) (A) (A) (A) (A) (A) (A) (A)
                 (A) (A) (A) (A) (A) (A) (A) (A) (A) (A) (A) (A)
                 (A) (A) (A) (A) (A) (A) (A) (A) (A) (A) (A) (A)
                 (A) (A) (A) (A) (A) (A) (A) (A) (A) (A) (A) (A)
                 (A) (A) (A) (A) (A) (A) (A) (A) (A) (A) (A) (A)
                 (A) (A) (A) (A) (A) (A) (A) (A) (A) (A) (A) (A)
                 (A) (A) (A) (A) (A) (A) (A) (A) (A) (A) (A) (A)
                 (A) (A) (A) (A) (A) (A) (A) (A) (A) (A) (A) (A)
                 (A) (A) (A) (A) (A) (A) (A) (A) (A) (A) (A) (A)
                 (A) (A) (A) (A) (A) (A) (A) (A) (A) (A) (A) (A)
                 (A) (A) (A) (A) (A) (A) (A) (A) (A) (A) (A) (A)
                 (A) (A) (A) (A) (A) (A) (A) (A) (A) (A) (A) (A)
                 (A) (A) (A) (A) (A) (A) (A) (A) (A) (A) (A) (A)
                 (A) (A) (A) (A) (A) (A) (A) (A) (A) (A) (A) (A)
                 (A) (A) (A) (A) (A) (A) (A) (A) (A) (A) (A) (A)
                 (A) (A) (A) (A) (A) (A) (A) (A) (A) (A) (A) (A)
                 (A) (A) (A) (A) (A) (A) (A) (A) (A) (A) (A) (A)
                 (A) (A) (A) (A) (A) (A) (A) (A) (A) (A) (A) (A)
                 (A) (A) (A) (A) (A) (A) (A) (A) (A) (A) (A) (A)
                 (A) (A) (A) (A) (A) (A) (A) (A) (A) (A) (A) (A)
                 (A) (A) (A) (A) (A) (A) (A) (A) (A) (A) (A) (A)
                 (A) (A) (A) (A) (A) (A) (A) (A) (A) (A) (A) (A)
                 (A) (A) (A) (A) (A) (A) (A) (A) (A) (A) (A) (A)
                 (A) (A) (A) (A) (A) (A) (A) (A) (A) (A) (A) (A)
                 (A) (A) (A) (A) (A) (A) (A) (A) (A) (A) (A) (A)
                 (A) (A) (A) (A) (A) (A) (A) (A) (A) (A) (A) (A)
                 (A) (A) (A) (A) (A) (A) (A) (A) (A) (A) (A) (A)
                 (A) (A) (A) (A) (A) (A) (A) (A) (A) (A) (A) (A)
                 (A) (A) (A) (A) (A) (A) (A) (A) (A) (A) (A) (A)
                 (A) (A) (A) (A) (A) (A) (A) (A) (A) (A) (A) (A)
                 (A) (A) (A) (A) (A) (A) (A) (A) (A) (A) (A) (A)
                 (A) (A) (A) (A) (A) (A) (A) (A) (A) (A) (A) (A)
                 (A) (A) (A) (A) (A) (A) (A) (A) (A) (A) (A) (A)
                 (A) (A) (A) (A) (A) (A) (A) (A) (A) (A) (A) (A)
                 (A) (A) (A) (A) (A) (A) (A) (A) (A) (A) (A) (A)
                 (A) (A) (A) (A) (A) (A) (A) (A) (A) (A) (A) (A)
                 (A) (A) (A) (A) (A) (A) (A) (A) (A) (A) (A) (A)
                 (A) (A) (A) (A) (A) (A) (A) (A) (A) (A) (A) (A)
                 (A) (A) (A) (A) (A) (A) (A) (A) (A) (A) (A) (A)
                 (A) (A) (A) (A) (A) (A) (A) (A) (A) (A) (A) (A)
                 (A) (A) (A) (A) (A) (A) (A) (A) (A) (A) (A) (A)
                 (A) (A) (A) (A) (A) (A) (A) (A) (A) (A) (A) (A)
                 (A) (A) (A) (A) (A) (A) (A) (A) (A) (A) (A) (A)
                 (A) (A) (A) (A) (A) (A) (A) (A) (A) (A) (A) (A)
                 (A) (A) (A) (A) (A) (A) (A) (A) (A) (A) (A) (A)
                 (A) (A) (A) (A) (A) (A) (A) (A) (A) (A) (A) (A)
                 (A) (A) (A) (A) (A) (A) (A) (A) (A) (A) (A) (A)
                 (A) (A) (A) (A) (A) (A) (A) (A) (A) (A) (A) (A)
                 (A) (A) (A) (A) (A) (A) (A) (A) (A) (A) (A) (A)
                 (A) (A) (A) (A) (A) (A) (A) (A) (A) (A) (A) (A)
                 (A) (A) (A) (A) (A) (A) (A) (A) (A) (A) (A) (A)
                 (A) (A) (A) (A) (A) (A) (A) (A) (A) (A) (A) (A)
                 (A) (A) (A) (A) (A) (A) (A) (A) (A) (A) (A) (A)
                 (A) (A) (A) (A) (A) (A) (A) (A) (A) (A) (A) (A)
                 (A) (A) (A) (A) (A) (A) (A) (A) (A) (A) (A) (A)
                 (A) (A) (A) (A) (A) (A) (A) (A) (A) (A) (A) (A)
                 (A) (A) (A) (A) (A) (A) (A) (A) (A) (A) (A) (A)
                 (A) (A) (A) (A) (A) (A) (A) (A) (A) (A) (A) (A)
                 (A) (A) (A) (A) (A) (A) (A) (A) (A) (A) (A) (A)
                 (A) (A) (A) (A) (A) (A) (A) (A) (A) (A) (A) (A)
                 (A) (A) (A) (A) (A) (A) (A) (A) (A) (A) (A) (A)
                 (A) (A) (A) (A) (A) (A) (A) (A) (A) (A) (A) (A)
                 (A) (A) (A) (A) (A) (A) (A) (A) (A) (A) (A) (A)
                 (A) (A) (A) (A) (A) (A) (A) (A) (A) (A) (A) (A)
                 (A) (A) (A) (A) (A) (A) (A) (A) (A) (A) (A) (A)
                 (A) (A) (A) (A) (A) (A) (A) (A) (A) (A) (A) (A)
                 (A) (A) (A) (A) (A) (A) (A) (A) (A) (A) (A) (A)
                 (A) (A) (A) (A) (A) (A) (A) (A) (A) (A) (A) (A)
                 (A) (A) (A) (A) (A) (A) (A) (A) (A) (A) (A) (A)
                 (A) (A) (A) (A) (A) (A) (A) (A) (A) (A) (A) (A)
                 (A) (A) (A) (A) (A) (A) (A) (A) (A) (A) (A) (A)
                 (A) (A) (A) (A) (A) (A) (A) (A) (A) (A) (A) (A)
                 (A) (A) (A) (A) (A) (A) (A) (A) (A) (A) (A) (A)
                 (A) (A) (A) (A) (A) (A) (A) (A) (A) (A) (A) (A)
                 (A) (A) (A) (A) (A) (A) (A) (A) (A) (A) (A) (A)
                 (A) (A) (A) (A) (A) (A) (A) (A) (A) (A) (A) (A)
                 (A) (A) (A) (A) (A) (A) (A) (A) (A) (A) (A) (A)
                 (A) (A) (A) (A) (A) (A) (A) (A) (A) (A) (A) (A)
                 (A) (A) (A) (A) (A) (A) (A) (A) (A) (A) (A) (A)
                 (A) (A) (A) (A) (A) (A) (A) (A) (A) (A) (A) (A)
                 (A) (A) (A) (A) (A) (A) (A) (A) (A) (A) (A)
 The electronic state is 1-A.
 Alpha  occ. eigenvalues --  -19.17319 -19.17243 -19.16827 -19.16793 -19.16738
 Alpha  occ. eigenvalues --  -19.16399 -19.16324 -19.16292 -19.16289 -19.15465
 Alpha  occ. eigenvalues --  -19.15401 -19.14576 -14.34409 -14.33886 -14.33678
 Alpha  occ. eigenvalues --  -14.33603 -10.24711 -10.24639 -10.24614 -10.24544
 Alpha  occ. eigenvalues --  -10.24351 -10.24261 -10.24182 -10.24178 -10.24117
 Alpha  occ. eigenvalues --  -10.23959 -10.23746 -10.23634 -10.23540 -10.23412
 Alpha  occ. eigenvalues --  -10.23249 -10.23173 -10.23133 -10.23129 -10.23092
 Alpha  occ. eigenvalues --  -10.22992 -10.22922 -10.22447 -10.22430 -10.22341
 Alpha  occ. eigenvalues --  -10.21458 -10.21414 -10.21205 -10.21155 -10.21150
 Alpha  occ. eigenvalues --  -10.21096 -10.21090 -10.21088 -10.21031 -10.21006
 Alpha  occ. eigenvalues --  -10.20988 -10.20854 -10.20164 -10.19253 -10.19181
 Alpha  occ. eigenvalues --  -10.18863 -10.18449 -10.18165 -10.18153 -10.18114
 Alpha  occ. eigenvalues --  -10.18081 -10.18058 -10.18050 -10.17980 -10.17977
 Alpha  occ. eigenvalues --  -10.17922 -10.17899 -10.17885 -10.17850 -10.17848
 Alpha  occ. eigenvalues --  -10.17835 -10.17828 -10.17785 -10.17769 -10.17759
 Alpha  occ. eigenvalues --  -10.17758 -10.17644 -10.17559 -10.17544 -10.17507
 Alpha  occ. eigenvalues --  -10.17494 -10.17479 -10.17478 -10.17472 -10.17415
 Alpha  occ. eigenvalues --  -10.17414 -10.17393 -10.17362 -10.17315 -10.17309
 Alpha  occ. eigenvalues --  -10.17281 -10.17248 -10.17207 -10.17153 -10.17111
 Alpha  occ. eigenvalues --  -10.17053 -10.17041 -10.17034 -10.17014 -10.16974
 Alpha  occ. eigenvalues --  -10.16927  -1.07002  -1.06933  -1.06666  -1.06563
 Alpha  occ. eigenvalues --   -1.06472  -1.06180  -1.06172  -1.05713  -1.05699
 Alpha  occ. eigenvalues --   -1.05039  -1.04970  -1.04374  -0.94881  -0.94678
 Alpha  occ. eigenvalues --   -0.94539  -0.94472  -0.88971  -0.86100  -0.84832
 Alpha  occ. eigenvalues --   -0.84714  -0.84643  -0.84459  -0.84015  -0.83829
 Alpha  occ. eigenvalues --   -0.83347  -0.83036  -0.82101  -0.82067  -0.79478
 Alpha  occ. eigenvalues --   -0.77393  -0.76260  -0.75928  -0.75755  -0.75640
 Alpha  occ. eigenvalues --   -0.75524  -0.75494  -0.75420  -0.75187  -0.74588
 Alpha  occ. eigenvalues --   -0.74500  -0.74134  -0.74071  -0.73627  -0.73503
 Alpha  occ. eigenvalues --   -0.73440  -0.73234  -0.73199  -0.72967  -0.72472
 Alpha  occ. eigenvalues --   -0.72316  -0.70442  -0.70420  -0.70363  -0.70114
 Alpha  occ. eigenvalues --   -0.70084  -0.69104  -0.68989  -0.68907  -0.68863
 Alpha  occ. eigenvalues --   -0.68393  -0.67668  -0.67536  -0.67246  -0.66463
 Alpha  occ. eigenvalues --   -0.66385  -0.63364  -0.62644  -0.62012  -0.61678
 Alpha  occ. eigenvalues --   -0.61484  -0.60684  -0.60289  -0.59769  -0.59685
 Alpha  occ. eigenvalues --   -0.59594  -0.59398  -0.58907  -0.58715  -0.58603
 Alpha  occ. eigenvalues --   -0.58554  -0.58332  -0.57902  -0.57601  -0.57526
[...]
 Alpha virt. eigenvalues --    2.03568   2.03659   2.03837   2.03999   2.04571
 Alpha virt. eigenvalues --    2.04677   2.04810   2.05273   2.05505   2.05563
 Alpha virt. eigenvalues --    2.05645   2.05734   2.05956   2.06028   2.06210
 Alpha virt. eigenvalues --    2.06390   2.06618   2.06675   2.06731   2.06968
 Alpha virt. eigenvalues --    2.07048   2.07181   2.07280   2.07389   2.07414
 Alpha virt. eigenvalues --    2.07638   2.07969   2.08076   2.08255   2.08471
 Alpha virt. eigenvalues --    2.08647   2.08911   2.09035   2.09578   2.09967
 Alpha virt. eigenvalues --    2.10247   2.10607   2.10799   2.10837   2.11325
 Alpha virt. eigenvalues --    2.11594   2.11931   2.12179   2.12905   2.13067
 Alpha virt. eigenvalues --    2.13162   2.13434   2.13961   2.14013   2.14172
 Alpha virt. eigenvalues --    2.14261   2.14596   2.14779   2.15146   2.15374
 Alpha virt. eigenvalues --    2.15826   2.15958   2.16134   2.16366   2.16579
 Alpha virt. eigenvalues --    2.17613   2.18015   2.18058   2.18168   2.18271
 Alpha virt. eigenvalues --    2.18350   2.18571   2.18787   2.18840   2.19206
 Alpha virt. eigenvalues --    2.19334   2.19512   2.19848   2.20019   2.20317
 Alpha virt. eigenvalues --    2.20665   2.20949   2.21098   2.21420   2.21525
 Alpha virt. eigenvalues --    2.21838   2.22357   2.23081   2.23505   2.23612
 Alpha virt. eigenvalues --    2.23819   2.23952   2.24399   2.24548   2.24958
 Alpha virt. eigenvalues --    2.25239   2.25405   2.25747   2.25893   2.26256
 Alpha virt. eigenvalues --    2.26294   2.26549   2.26975   2.27208   2.27458
 Alpha virt. eigenvalues --    2.27887   2.28093   2.28713   2.29375   2.29671
 Alpha virt. eigenvalues --    2.29856   2.30586   2.30866   2.30992   2.31531
 Alpha virt. eigenvalues --    2.32087   2.32826   2.32979   2.33073   2.33383
 Alpha virt. eigenvalues --    2.34012   2.34498   2.34883   2.35767   2.36521
 Alpha virt. eigenvalues --    2.37008   2.37933   2.38297   2.38472   2.38536
 Alpha virt. eigenvalues --    2.38769   2.38999   2.39161   2.39302   2.39471
 Alpha virt. eigenvalues --    2.39572   2.39703   2.39982   2.40093   2.40123
 Alpha virt. eigenvalues --    2.40468   2.40663   2.41168   2.41630   2.41854
 Alpha virt. eigenvalues --    2.42011   2.42018   2.42258   2.42303   2.42476
 Alpha virt. eigenvalues --    2.42608   2.42733   2.43047   2.43110   2.43638
 Alpha virt. eigenvalues --    2.43926   2.44203   2.44780   2.45047   2.45209
 Alpha virt. eigenvalues --    2.45289   2.45362   2.45809   2.46139   2.46472
 Alpha virt. eigenvalues --    2.46545   2.46591   2.47156   2.47378   2.47621
 Alpha virt. eigenvalues --    2.47631   2.47788   2.48037   2.48125   2.48323
 Alpha virt. eigenvalues --    2.48452   2.48632   2.49020   2.49677   2.50557
 Alpha virt. eigenvalues --    2.50711   2.50856   2.51210   2.51219   2.51472
 Alpha virt. eigenvalues --    2.51904   2.52665   2.53954   2.54049   2.54737
 Alpha virt. eigenvalues --    2.54810   2.55734   2.56062   2.56401   2.57019
 Alpha virt. eigenvalues --    2.57472   2.57533   2.57647   2.57822   2.58927
 Alpha virt. eigenvalues --    2.59181   2.59353   2.59861   2.60001   2.60871
 Alpha virt. eigenvalues --    2.61117   2.61758   2.62096   2.62643   2.64045
 Alpha virt. eigenvalues --    2.64994   2.65326   2.65670   2.66049   2.66298
 Alpha virt. eigenvalues --    2.66572   2.67097   2.67331   2.67773   2.67969
 Alpha virt. eigenvalues --    2.68473   2.68713   2.68945   2.69405   2.69681
 Alpha virt. eigenvalues --    2.70286   2.70320   2.70802   2.71390   2.72064
 Alpha virt. eigenvalues --    2.72268   2.73628   2.73790   2.74680   2.75544
 Alpha virt. eigenvalues --    2.75982   2.76535   2.76559   2.77087   2.77242
 Alpha virt. eigenvalues --    2.77518   2.78121   2.79423   2.80130   2.80198
 Alpha virt. eigenvalues --    2.81209   2.81321   2.81471   2.82000   2.83484
 Alpha virt. eigenvalues --    2.84185   2.86428   2.86637   2.86752   2.86992
 Alpha virt. eigenvalues --    2.87190   2.88395   2.88457   2.88548   2.88791
 Alpha virt. eigenvalues --    2.88991   2.89249   2.89355   2.89429   2.89951
 Alpha virt. eigenvalues --    2.90385   2.91395   2.91850   2.92106   2.92353
 Alpha virt. eigenvalues --    2.93093   2.93172   2.93850   2.94106   2.94777
 Alpha virt. eigenvalues --    2.96519   2.98321   2.99091   3.00437   3.02126
 Alpha virt. eigenvalues --    3.02621   3.02797   3.03140   3.03170   3.03332
 Alpha virt. eigenvalues --    3.03987   3.04069   3.04136   3.04207   3.04339
 Alpha virt. eigenvalues --    3.04538   3.04802   3.04904   3.05257   3.05387
 Alpha virt. eigenvalues --    3.05880   3.06151   3.06349   3.06883   3.07219
 Alpha virt. eigenvalues --    3.07349   3.08497   3.09565   3.10152   3.10683
 Alpha virt. eigenvalues --    3.11339   3.15026   3.20176   3.23058   3.23104
 Alpha virt. eigenvalues --    3.23161   3.25307   3.26893   3.27146   3.27171
 Alpha virt. eigenvalues --    3.27223   3.32031   3.38282   3.38370   3.38908
 Alpha virt. eigenvalues --    3.39924   3.40370   3.40446   3.40791   3.40970
 Alpha virt. eigenvalues --    3.41032   3.41203   3.41443   3.41691   3.42748
 Alpha virt. eigenvalues --    3.43859   3.44115   3.44357   3.44496   3.56215
 Alpha virt. eigenvalues --    3.56350   3.66475   3.66590   3.66620   3.66651
 Alpha virt. eigenvalues --    3.68295   3.68327   3.68433   3.68523
          Condensed to atoms (all electrons):
 Mulliken atomic charges:
              1
     1  C   -0.300739
     2  C    0.101544
     3  C    0.049201
     4  C    0.048381
     5  C    0.104553
     6  C    0.097681
     7  C    0.042817
     8  C    0.042583
     9  C    0.096945
    10  C    0.037038
    11  C    0.099331
    12  C    0.067586
    13  C   -0.020004
    14  C   -0.012973
    15  C    0.102640
    16  C    0.047267
    17  C    0.048525
    18  C    0.049865
    19  C    0.042366
    20  C    0.106363
    21  C   -0.013271
    22  C   -0.020473
    23  C    0.058451
    24  C    0.103129
    25  C    0.037423
    26  N   -0.275791
    27  N   -0.285716
    28  N   -0.285950
    29  N   -0.282172
    30  C    0.040695
    31  C   -0.013115
    32  C    0.088313
    33  C    0.133485
    34  C    0.095190
    35  C    0.001660
    36  C    0.129394
    37  C   -0.012228
    38  C    0.016370
    39  C   -0.010833
    40  C    0.111392
    41  C    0.038407
    42  C    0.013645
    43  C    0.030751
    44  C   -0.003046
    45  C    0.108858
    46  C    0.055942
    47  C    0.042541
    48  C    0.142000
    49  C   -0.018458
    50  C    0.051428
    51  C   -0.016648
    52  C    0.141765
    53  C    0.167446
    54  C   -0.020659
    55  C    0.056042
    56  C   -0.028633
    57  C    0.157671
    58  C    0.158527
    59  C   -0.028863
    60  C    0.055725
    61  C   -0.020121
    62  C    0.166966
    63  C   -0.004327
    64  C   -0.011481
    65  C    0.110709
    66  C    0.038834
    67  C    0.029628
    68  C    0.033109
    69  C    0.060654
    70  C    0.111317
    71  C    0.000852
    72  C    0.036950
    73  C    0.128125
    74  C   -0.012138
    75  C    0.057662
    76  C    0.050318
    77  C    0.069271
    78  H   -0.043306
    79  H   -0.056437
    80  H   -0.045898
    81  H   -0.057096
    82  H   -0.057064
    83  H   -0.044612
    84  H   -0.061753
    85  H   -0.049191
    86  H   -0.062264
    87  H   -0.044945
    88  H   -0.054911
    89  H   -0.045583
    90  O   -0.293357
    91  C    0.131515
    92  O   -0.288564
    93  C    0.134784
    94  O   -0.288102
    95  O   -0.293220
    96  C    0.132801
    97  C    0.134867
    98  H   -0.037113
    99  H   -0.017912
   100  H   -0.037788
   101  H   -0.040814
   102  H   -0.043274
   103  H   -0.033931
   104  H   -0.035554
   105  H   -0.028675
   106  H   -0.032951
   107  H   -0.037754
   108  H   -0.033782
   109  H   -0.028150
   110  H   -0.040807
   111  H   -0.019004
   112  H   -0.039559
   113  H   -0.031554
   114  H    0.020766
   115  H    0.017968
   116  H    0.027215
   117  H    0.022670
   118  H    0.023836
   119  H    0.027330
   120  H    0.027629
   121  H    0.018824
   122  H    0.020323
   123  H    0.025956
   124  H    0.024809
   125  H    0.027761
   126  H   -0.038992
   127  O   -0.277932
   128  H   -0.034114
   129  H   -0.027456
   130  O   -0.272872
   131  O   -0.275977
   132  H   -0.038092
   133  H   -0.037472
   134  H   -0.045758
   135  O   -0.297087
   136  H   -0.038915
   137  O   -0.277388
   138  H   -0.034593
   139  H   -0.027234
   140  O   -0.272961
   141  O   -0.274033
   142  H   -0.039790
   143  H   -0.038624
   144  H   -0.041688
   145  O   -0.273562
   146  C    0.122390
   147  C    0.111451
   148  C    0.121071
   149  C    0.109775
   150  H    0.033725
   151  H    0.023976
   152  H    0.041285
   153  H    0.028747
   154  H    0.024090
   155  H    0.062161
   156  H    0.024406
   157  H    0.041240
   158  H    0.033177
   159  H    0.061888
   160  H    0.024272
   161  H    0.025417
   162  C    0.133474
   163  H    0.035867
   164  H    0.023463
   165  H    0.026201
   166  C    0.126972
   167  H    0.032430
   168  H    0.032115
   169  H    0.028291
   170  C    0.126674
   171  H    0.033410
   172  H    0.028897
   173  H    0.031133
   174  C    0.131593
   175  H    0.007934
   176  H    0.028748
   177  H    0.036444
 Sum of Mulliken atomic charges =   0.00000
 Mulliken charges with hydrogens summed into heavy atoms:
              1
     1  C   -0.300739
     2  C    0.101544
     3  C    0.049201
     4  C    0.048381
     5  C    0.104553
     6  C    0.097681
     7  C    0.042817
     8  C    0.042583
     9  C    0.096945
    10  C   -0.008544
    11  C    0.099331
    12  C    0.022641
    13  C   -0.082267
    14  C   -0.070037
    15  C    0.058028
    16  C    0.047267
    17  C   -0.006387
    18  C   -0.006572
    19  C    0.042366
    20  C    0.060465
    21  C   -0.070367
    22  C   -0.082226
    23  C    0.009260
    24  C    0.103129
    25  C   -0.005883
    26  N   -0.275791
    27  N   -0.285716
    28  N   -0.285950
    29  N   -0.282172
    30  C    0.040695
    31  C   -0.013115
    32  C    0.088313
    33  C    0.133485
    34  C    0.095190
    35  C    0.001660
    36  C    0.129394
    37  C   -0.012228
    38  C   -0.017561
    39  C   -0.054107
    40  C    0.111392
    41  C    0.001294
    42  C   -0.004267
    43  C   -0.007038
    44  C   -0.043860
    45  C    0.108858
    46  C    0.020388
    47  C    0.013867
    48  C    0.142000
    49  C   -0.060146
    50  C    0.012804
    51  C   -0.056437
    52  C    0.141765
    53  C    0.167446
    54  C   -0.059574
    55  C    0.021448
    56  C   -0.055866
    57  C    0.157671
    58  C    0.158527
    59  C   -0.056319
    60  C    0.021611
    61  C   -0.059112
    62  C    0.166966
    63  C   -0.023331
    64  C   -0.052288
    65  C    0.110709
    66  C   -0.000725
    67  C   -0.001927
    68  C    0.004959
    69  C    0.026872
    70  C    0.111317
    71  C   -0.036902
    72  C    0.003998
    73  C    0.128125
    74  C   -0.050230
    75  C    0.020190
    76  C    0.004560
    77  C    0.069271
    90  O   -0.293357
    91  C    0.210042
    92  O   -0.288564
    93  C    0.200735
    94  O   -0.288102
    95  O   -0.293220
    96  C    0.206636
    97  C    0.201642
   127  O   -0.277932
   130  O   -0.272872
   131  O   -0.275977
   135  O   -0.297087
   137  O   -0.277388
   140  O   -0.272961
   141  O   -0.274033
   145  O   -0.273562
   146  C    0.221376
   147  C    0.223028
   148  C    0.219894
   149  C    0.224773
   162  C    0.219005
   166  C    0.219807
   170  C    0.220113
   174  C    0.204719
 Sum of Mulliken charges with hydrogens summed into heavy atoms =   0.00000
 Electronic spatial extent (au):  <R**2>=         109560.9996
 Charge=              0.0000 electrons
 Dipole moment (field-independent basis, Debye):
    X=              1.2692    Y=             -3.6873    Z=              1.7067  Tot=              4.2568
 Quadrupole moment (field-independent basis, Debye-Ang):
   XX=           -544.5617   YY=           -519.9614   ZZ=           -534.0942
   XY=             -8.0353   XZ=              6.1446   YZ=             -2.2255
 Traceless Quadrupole moment (field-independent basis, Debye-Ang):
   XX=            -11.6893   YY=             12.9110   ZZ=             -1.2217
   XY=             -8.0353   XZ=              6.1446   YZ=             -2.2255
 Octapole moment (field-independent basis, Debye-Ang**2):
  XXX=              2.1095  YYY=           -170.2353  ZZZ=            -14.6410  XYY=            -10.4639
  XXY=           -311.6679  XXZ=             44.9462  XZZ=             38.7502  YZZ=            -45.0838
  YYZ=            -80.9381  XYZ=            128.5159
 Hexadecapole moment (field-independent basis, Debye-Ang**3):
 XXXX=         -64097.8817 YYYY=         -56338.3740 ZZZZ=         -18109.5485 XXXY=             61.2202
 XXXZ=            296.4436 YYYX=           -711.5701 YYYZ=           -383.4464 ZZZX=             34.7861
 ZZZY=            -84.2857 XXYY=         -20378.7762 XXZZ=         -13491.9258 YYZZ=         -11385.4561
 XXYZ=            222.2300 YYXZ=            914.8090 ZZXY=           -562.5617
 N-N= 2.010773881410D+04 E-N=-5.047678870791D+04  KE= 4.378181326504D+03
 Leave Link  601 at Tue Feb  3 00:53:01 2015, MaxMem= 2147483648 cpu:      89.9
 (Enter /opt/g09/l9999.exe)
 1\1\GINC-CHPC-SCANDIUM\SP\RB3LYP\CC-pVDZ\C85H76N4O12\JARVIST\03-Feb-20
 15\0\\#p sp B3LYP/cc-pVDZ\\Auto Spiro; and yes I said yes I will Yes.\
 \0,1\C,0,-0.016548,0.049694,0.162459\C,0,0.763366,0.936178,-0.816087\C
 ,0,0.445383,0.60446,-2.146763\C,0,-0.548835,-0.471886,-2.139903\C,0,-0
 .819357,-0.829311,-0.805862\C,0,0.878509,-0.734641,1.129269\C,0,0.5380
 61,-0.447617,2.4675\C,0,-0.590425,0.486342,2.475034\C,0,-0.909986,0.82
 0567,1.142579\C,0,1.917219,-1.595348,0.821623\C,0,2.648225,-2.193311,1
 .86541\C,0,2.319483,-1.897983,3.199383\C,0,1.272279,-1.028313,3.503705
 \C,0,-1.210528,-1.121757,-3.185625\C,0,-2.12882,-2.125998,-2.889825\C,
 0,-2.401761,-2.481377,-1.557814\C,0,-1.737924,-1.826453,-0.507637\C,0,
 1.698273,1.922916,-0.53267\C,0,2.327693,2.593717,-1.593894\C,0,2.00445
 3,2.26638,-2.921452\C,0,1.071296,1.271852,-3.203332\C,0,-1.343133,1.03
 0115,3.517239\C,0,-2.38227,1.914706,3.225693\C,0,-2.681158,2.2673,1.89
 8548\C,0,-1.936125,1.699981,0.847862\N,0,3.713097,-3.081818,1.569892\N
 ,0,-3.346594,-3.51056,-1.264578\N,0,3.292787,3.610721,-1.319775\N,0,-3
 .727821,3.186455,1.616909\C,0,-4.980212,3.059871,2.272203\C,0,2.858027
 ,4.767033,-0.615183\C,0,-3.549346,4.169658,0.605569\C,0,4.627002,3.493
 952,-1.757592\C,0,3.556788,-4.072974,0.56811\C,0,4.943546,-2.961306,2.
 265936\C,0,-4.681874,-3.435177,-1.711286\C,0,-2.879292,-4.665704,-0.57
 8776\C,0,-5.486324,-4.580005,-1.802117\C,0,-6.818617,-4.502692,-2.2170
 52\C,0,-7.377134,-3.271537,-2.568075\C,0,-6.581579,-2.1217,-2.485369\C
 ,0,-5.262856,-2.197606,-2.057843\C,0,4.605279,-4.413537,-0.291836\C,0,
 4.446099,-5.399605,-1.27156\C,0,3.217079,-6.048699,-1.414426\C,0,2.164
 278,-5.718329,-0.550533\C,0,2.333516,-4.753654,0.429348\C,0,5.420655,-
 4.017682,3.072004\C,0,6.646814,-3.908067,3.740155\C,0,7.381634,-2.7292
 53,3.625742\C,0,6.928424,-1.662687,2.852382\C,0,5.714627,-1.781768,2.1
 61435\C,0,-3.196075,-4.877689,0.77867\C,0,-2.740593,-6.022228,1.4467\C
 ,0,-1.95917,-6.946068,0.755279\C,0,-1.62434,-6.761975,-0.584641\C,0,-2
 .089967,-5.621046,-1.254649\C,0,2.076614,5.743068,-1.27055\C,0,1.64097
 6,6.885164,-0.582224\C,0,1.998726,7.050296,0.754258\C,0,2.773688,6.106
 083,1.425284\C,0,3.197938,4.960076,0.739642\C,0,5.163728,2.255533,-2.1
 43522\C,0,6.487602,2.139684,-2.577499\C,0,7.316901,3.262838,-2.619527\
 C,0,6.794508,4.501038,-2.225801\C,0,5.475392,4.618149,-1.809641\C,0,-2
 .316454,4.834388,0.479325\C,0,-2.120914,5.789752,-0.505555\C,0,-3.1567
 47,6.122906,-1.387578\C,0,-4.39386,5.484775,-1.260731\C,0,-4.579405,4.
 50996,-0.275952\C,0,-5.703827,1.839739,2.207594\C,0,-6.947196,1.718398
 ,2.836612\C,0,-7.500273,2.814801,3.502299\C,0,-6.816842,4.023701,3.563
 524\C,0,-5.559609,4.142283,2.963297\H,0,-2.185936,1.944354,-0.179427\H
 ,0,1.970174,2.168847,0.489218\H,0,2.492621,2.809606,-3.723764\H,0,0.82
 9579,1.029714,-4.235316\H,0,-1.00738,-0.859231,-4.22094\H,0,-2.64211,-
 2.656153,-3.685235\H,0,-1.124264,0.77902,4.552439\H,0,-2.971795,2.3415
 41,4.031448\H,0,1.0297,-0.819285,4.543021\H,0,2.887945,-2.368136,3.995
 964\H,0,-1.970432,-2.09344,0.518695\H,0,2.187494,-1.802948,-0.208781\O
 ,0,-2.853388,7.074797,-2.330895\C,0,-3.868497,7.44263,-3.247993\O,0,8.
 630751,3.261528,-3.022664\C,0,9.188953,2.031525,-3.440936\O,0,-8.66940
 3,-3.082415,-2.994789\O,0,2.936649,-7.011228,-2.355209\C,0,3.966514,-7
 .369757,-3.258163\C,0,-9.498097,-4.222598,-3.108693\H,0,-7.019972,-1.1
 65297,-2.754914\H,0,-4.672906,-1.289909,-1.993392\H,0,5.557942,-3.9008
 86,-0.201363\H,0,5.281909,-5.63154,-1.922472\H,0,-7.400861,-5.4163,-2.
 269187\H,0,-5.071768,-5.549063,-1.545916\H,0,1.217981,-6.240679,-0.646
 302\H,0,1.511984,-4.519495,1.09786\H,0,-5.53976,4.010734,-0.195064\H,0
 ,-5.216861,5.719739,-1.926412\H,0,-1.166173,6.297778,-0.593066\H,0,-1.
 502439,4.590248,1.153971\H,0,6.852622,1.161809,-2.872112\H,0,4.543279,
 1.366764,-2.112236\H,0,7.44082,5.373084,-2.263655\H,0,5.093857,5.59214
 7,-1.522784\H,0,8.655678,1.614949,-4.307181\H,0,9.187413,1.285981,-2.6
 32881\H,0,10.221018,2.247922,-3.725643\H,0,4.839222,-7.784109,-2.73459
 2\H,0,4.289933,-6.513605,-3.866183\H,0,3.543977,-8.135783,-3.911986\H,
 0,-10.465491,-3.860254,-3.463415\H,0,-9.634982,-4.726218,-2.141073\H,0
 ,-9.097572,-4.947584,-3.831404\H,0,-4.742338,7.867523,-2.735545\H,0,-4
 .192945,6.588549,-3.858121\H,0,-3.428958,8.202405,-3.897736\H,0,3.0295
 78,6.259927,2.466379\O,0,3.940164,3.965352,1.304644\H,0,1.665613,7.937
 399,1.286163\H,0,1.047374,7.64188,-1.080859\O,0,1.806604,5.493418,-2.5
 78649\O,0,-5.111556,0.844616,1.494399\H,0,-7.499768,0.788019,2.782279\
 H,0,-8.474088,2.716725,3.974123\H,0,-7.228556,4.8899,4.071128\O,0,-4.9
 46992,5.373467,3.00714\H,0,-2.976712,-6.190006,2.490286\O,0,-3.94739,-
 3.902528,1.365473\H,0,-1.60204,-7.83163,1.273982\H,0,-1.02511,-7.50315
 8,-1.099556\O,0,-1.843521,-5.353081,-2.56404\O,0,5.196667,-0.814273,1.
 358874\H,0,7.524241,-0.761756,2.771386\H,0,8.32857,-2.640302,4.151418\
 H,0,7.017129,-4.718329,4.356471\O,0,4.60728,-5.10834,3.14342\C,0,-1.02
 4315,-6.250245,-3.302507\C,0,5.865691,0.436494,1.280219\C,0,1.005852,6
 .421088,-3.300245\C,0,-5.752908,-0.420718,1.423491\H,0,-0.967049,-5.83
 2062,-4.308976\H,0,-1.470431,-7.252292,-3.352823\H,0,-0.013606,-6.3210
 96,-2.882693\H,0,-6.715378,-0.356043,0.899839\H,0,-5.91586,-0.839838,2
 .425687\H,0,-5.081386,-1.071226,0.862001\H,0,1.477715,7.411673,-3.3400
 52\H,0,-0.000533,6.511888,-2.874065\H,0,0.932649,6.017852,-4.311799\H,
 0,5.243724,1.075493,0.65245\H,0,6.857964,0.335548,0.821431\H,0,5.97405
 7,0.891678,2.273755\C,0,5.047022,-6.232786,3.885792\H,0,4.259302,-6.98
 1361,3.783514\H,0,5.18155,-5.990248,4.948567\H,0,5.986523,-6.637972,3.
 487581\C,0,-4.311254,-4.063617,2.728057\H,0,-4.898439,-3.180278,2.9840
 98\H,0,-3.428939,-4.112237,3.37901\H,0,-4.922772,-4.962836,2.87747\C,0
 ,4.338247,4.10992,2.659371\H,0,4.913722,3.213469,2.895989\H,0,4.970483
 ,4.996012,2.800452\H,0,3.472389,4.170899,3.331148\C,0,-3.789991,5.4689
 45,3.836115\H,0,-4.029241,5.195868,4.87323\H,0,-3.478369,6.515349,3.80
 0118\H,0,-2.973276,4.836704,3.472778\\Version=EM64L-G09RevA.02\State=1
 -A\HF=-4406.6025863\RMSD=4.234e-09\Dipole=0.499351,-1.4506979,0.671462
 7\Quadrupole=-8.6906727,9.5990026,-0.9083299,-5.9740539,4.5683312,-1.6
 546067\PG=C01 [X(C85H76N4O12)]\\@


 IF YOU DON'T HAVE THE LAW - ARGUE THE FACTS.
 IF YOU DON'T HAVE THE FACTS - ARGUE THE LAW.
 IF YOU DON'T HAVE EITHER - POUND THE TABLE.
 Job cpu time:  0 days 12 hours 33 minutes 44.9 seconds.
 File lengths (MBytes):  RWF=   1716 Int=      0 D2E=      0 Chk=    112 Scr=      1
 Normal termination of Gaussian 09 at Tue Feb  3 00:53:01 2015.
