 Entering Gaussian System, Link 0=g09
 Input=sp_6_B3LYP_cc-pVDZ.com
 Output=sp_6_B3LYP_cc-pVDZ.log
 Initial command:
 /opt/g09/l1.exe /home/jarvist/2014-07_SPIRO/b3lyp-631gs_opt/delta_scf/neutral/Gau-44819.inp -scrdir=/home/jarvist/2014-07_SPIRO/b3lyp-631gs_opt/delta_scf/neutral/
 Default is to use a total of   8 processors:
                                8 via shared-memory
                                1 via Linda
 Entering Link 1 = /opt/g09/l1.exe PID=     44821.
  
 Copyright (c) 1988,1990,1992,1993,1995,1998,2003,2009, Gaussian, Inc.
                  All Rights Reserved.
  
 This is part of the Gaussian(R) 09 program.  It is based on
 the Gaussian(R) 03 system (copyright 2003, Gaussian, Inc.),
 the Gaussian(R) 98 system (copyright 1998, Gaussian, Inc.),
 the Gaussian(R) 94 system (copyright 1995, Gaussian, Inc.),
 the Gaussian 92(TM) system (copyright 1992, Gaussian, Inc.),
 the Gaussian 90(TM) system (copyright 1990, Gaussian, Inc.),
 the Gaussian 88(TM) system (copyright 1988, Gaussian, Inc.),
 the Gaussian 86(TM) system (copyright 1986, Carnegie Mellon
 University), and the Gaussian 82(TM) system (copyright 1983,
 Carnegie Mellon University). Gaussian is a federally registered
 trademark of Gaussian, Inc.
  
 This software contains proprietary and confidential information,
 including trade secrets, belonging to Gaussian, Inc.
  
 This software is provided under written license and may be
 used, copied, transmitted, or stored only in accord with that
 written license.
  
 The following legend is applicable only to US Government
 contracts under FAR:
  
                    RESTRICTED RIGHTS LEGEND
  
 Use, reproduction and disclosure by the US Government is
 subject to restrictions as set forth in subparagraphs (a)
 and (c) of the Commercial Computer Software - Restricted
 Rights clause in FAR 52.227-19.
  
 Gaussian, Inc.
 340 Quinnipiac St., Bldg. 40, Wallingford CT 06492
  
  
 ---------------------------------------------------------------
 Warning -- This program may not be used in any manner that
 competes with the business of Gaussian, Inc. or will provide
 assistance to any competitor of Gaussian, Inc.  The licensee
 of this program is prohibited from giving any competitor of
 Gaussian, Inc. access to this program.  By using this program,
 the user acknowledges that Gaussian, Inc. is engaged in the
 business of creating and licensing software in the field of
 computational chemistry and represents and warrants to the
 licensee that it is not a competitor of Gaussian, Inc. and that
 it will not use this program in any manner prohibited above.
 ---------------------------------------------------------------
  

 Cite this work as:
 Gaussian 09, Revision A.02,
 M. J. Frisch, G. W. Trucks, H. B. Schlegel, G. E. Scuseria, 
 M. A. Robb, J. R. Cheeseman, G. Scalmani, V. Barone, B. Mennucci, 
 G. A. Petersson, H. Nakatsuji, M. Caricato, X. Li, H. P. Hratchian, 
 A. F. Izmaylov, J. Bloino, G. Zheng, J. L. Sonnenberg, M. Hada, 
 M. Ehara, K. Toyota, R. Fukuda, J. Hasegawa, M. Ishida, T. Nakajima, 
 Y. Honda, O. Kitao, H. Nakai, T. Vreven, J. A. Montgomery, Jr., 
 J. E. Peralta, F. Ogliaro, M. Bearpark, J. J. Heyd, E. Brothers, 
 K. N. Kudin, V. N. Staroverov, R. Kobayashi, J. Normand, 
 K. Raghavachari, A. Rendell, J. C. Burant, S. S. Iyengar, J. Tomasi, 
 M. Cossi, N. Rega, J. M. Millam, M. Klene, J. E. Knox, J. B. Cross, 
 V. Bakken, C. Adamo, J. Jaramillo, R. Gomperts, R. E. Stratmann, 
 O. Yazyev, A. J. Austin, R. Cammi, C. Pomelli, J. W. Ochterski, 
 R. L. Martin, K. Morokuma, V. G. Zakrzewski, G. A. Voth, 
 P. Salvador, J. J. Dannenberg, S. Dapprich, A. D. Daniels, 
 O. Farkas, J. B. Foresman, J. V. Ortiz, J. Cioslowski, 
 and D. J. Fox, Gaussian, Inc., Wallingford CT, 2009.
 
 ******************************************
 Gaussian 09:  EM64L-G09RevA.02 11-Jun-2009
                 3-Feb-2015 
 ******************************************
 %mem=16GB
 %nprocs=24
 Will use up to   24 processors via shared memory.
 Default route:  MaxDisk=100GB
 -------------------
 #p sp B3LYP/cc-pVDZ
 -------------------
 1/38=1/1;
 2/12=2,17=6,18=5,40=1/2;
 3/5=16,11=2,16=1,25=1,30=1,74=-5/1,2,3;
 4//1;
 5/5=2,38=5/2;
 6/7=2,8=2,9=2,10=2,28=1/1;
 99/5=1,9=1/99;
 Leave Link    1 at Tue Feb  3 00:53:01 2015, MaxMem= 2147483648 cpu:       1.3
 (Enter /opt/g09/l101.exe)
 ------------------------------------------
 Auto Spiro; and yes I said yes I will Yes.
 ------------------------------------------
 Symbolic Z-matrix:
 Charge =  0 Multiplicity = 1
 C                    -0.06281  -0.04565   0.29307 
 C                    -0.87114  -0.91193  -0.68063 
 C                    -0.55795  -0.58458  -2.0127 
 C                     0.46502   0.46528  -2.01127 
 C                     0.74672   0.8196   -0.67783 
 C                    -0.94924   0.72699   1.2773 
 C                    -0.65034   0.3586    2.60576 
 C                     0.45396  -0.60287   2.59074 
 C                     0.81351  -0.86237   1.25316 
 C                    -1.95727   1.63184   0.99296 
 C                    -2.69611   2.19338   2.05119 
 C                    -2.40717   1.81981   3.37382 
 C                    -1.39248   0.90436   3.65449 
 C                     1.15058   1.08808  -3.05874 
 C                     2.10701   2.05655  -2.7647 
 C                     2.38759   2.41219  -1.43476 
 C                     1.69354   1.79196  -0.38353 
 C                    -1.81909  -1.879    -0.38096 
 C                    -2.47806  -2.53961  -1.431 
 C                    -2.16916  -2.20995  -2.76364 
 C                    -1.21656  -1.23793  -3.05809 
 C                     1.15213  -1.23385   3.62167 
 C                     2.18409  -2.11702   3.31136 
 C                     2.54349  -2.37644   1.97506 
 C                     1.84383  -1.7314    0.93633 
 N                    -3.726     3.13303   1.77057 
 N                     3.40032   3.38088  -1.15396 
 N                    -3.46515  -3.53186  -1.15879 
 N                     3.60648  -3.26681   1.69052 
 C                     4.7326   -3.30094   2.56198 
 C                    -3.27363  -4.4213   -0.066 
 C                     3.55389  -4.16939   0.59484 
 C                    -4.7518   -3.43492  -1.75957 
 C                    -3.44688   4.23908   0.92303 
 C                    -4.92758   3.11532   2.52668 
 C                     4.74722   3.12957  -1.50071 
 C                     3.05191   4.55574  -0.42979 
 C                     5.65251   4.18215  -1.69995 
 C                     6.98898   3.93953  -2.025 
 C                     7.44897   2.62845  -2.17883 
 C                     6.55078   1.56986  -1.99315 
 C                     5.22628   1.81209  -1.65115 
 C                    -4.41287   4.72463   0.03374 
 C                    -4.14279   5.80825  -0.80574 
 C                    -2.88181   6.4127   -0.77877 
 C                    -1.91178   5.93771   0.11304 
 C                    -2.19205   4.87245   0.95576 
 C                    -5.36218   4.24841   3.22199 
 C                    -6.55282   4.24129   3.95055 
 C                    -7.31542   3.07787   4.00766 
 C                    -6.90171   1.93055   3.32363 
 C                    -5.72434   1.94223   2.56988 
 C                     3.57407   4.79608   0.84425 
 C                     3.26023   5.95781   1.55111 
 C                     2.40182   6.89375   0.97844 
 C                     1.86743   6.67963  -0.29534 
 C                     2.1901    5.51903  -1.00997 
 C                    -2.1132   -5.22417   0.01453 
 C                    -1.91415  -6.06235   1.11233 
 C                    -2.86822  -6.14777   2.12603 
 C                    -4.03437  -5.38558   2.03873 
 C                    -4.22653  -4.52576   0.95926 
 C                    -5.32955  -2.19601  -2.06178 
 C                    -6.58507  -2.11301  -2.67093 
 C                    -7.29867  -3.27824  -2.96687 
 C                    -6.73318  -4.52343  -2.65414 
 C                    -5.47742  -4.60052  -2.07013 
 C                     2.34236  -4.76404   0.19613 
 C                     2.30563  -5.65788  -0.86402 
 C                     3.47846  -6.00489  -1.54789 
 C                     4.69034  -5.42807  -1.15666 
 C                     4.71868  -4.51072  -0.10334 
 C                     5.55484  -2.15578   2.70549 
 C                     6.65112  -2.19601   3.57423 
 C                     6.95267  -3.36851   4.27307 
 C                     6.165    -4.50666   4.11671 
 C                     5.05668  -4.46137   3.26902 
 H                     2.12479  -1.91224  -0.09614 
 H                    -2.06232  -2.12067   0.64914 
 H                    -2.68757  -2.72385  -3.56733 
 H                    -0.98922  -1.00151  -4.09455 
 H                     0.94338   0.82592  -4.0933 
 H                     2.64826   2.55772  -3.56063 
 H                     0.89358  -1.05319   4.66226 
 H                     2.72136  -2.62089   4.10832 
 H                    -1.18146   0.63307   4.68599 
 H                    -2.98159   2.25937   4.18356 
 H                     1.92305   2.0589    0.64406 
 H                    -2.19535   1.90491  -0.03048 
 O                     3.33137  -6.90573  -2.5715 
 C                     4.48909  -7.28136  -3.29424 
 O                    -8.53468  -3.31428  -3.55282 
 C                    -9.14761  -2.08171  -3.88877 
 O                     8.73596   2.27747  -2.50121 
 O                    -2.49382   7.45945  -1.5792 
 C                    -3.44441   7.98712  -2.48825 
 C                     9.67133   3.31835  -2.71121 
 H                     6.91331   0.55306  -2.1113 
 H                     4.55309   0.97455  -1.50283 
 H                    -5.38742   4.24776  -0.00495 
 H                    -4.91531   6.15245  -1.4843 
 H                     7.65269   4.78531  -2.16705 
 H                     5.31146   5.20703  -1.59889 
 H                    -0.94131   6.42158   0.14484 
 H                    -1.4313    4.51881   1.6437 
 H                     5.66348  -4.05921   0.18167 
 H                     5.61655  -5.66773  -1.66705 
 H                     1.364    -6.10432  -1.16367 
 H                     1.42005  -4.51864   0.7113 
 H                    -6.99407  -1.13404  -2.89441 
 H                    -4.79099  -1.28311  -1.82941 
 H                    -7.29291  -5.42256  -2.89288 
 H                    -5.04921  -5.57191  -1.84292 
 H                    -8.54665  -1.51397  -4.61219 
 H                    -9.31979  -1.45904  -3.00022 
 H                    -10.10822  -2.33658  -4.34061 
 H                    -4.32871   8.37764  -1.96676 
 H                    -3.76546   7.23534  -3.2222 
 H                    -2.94326   8.80616  -3.00821 
 H                     10.61778   2.83027  -2.95338 
 H                     9.8036    3.93507  -1.81106 
 H                     9.3765    3.96839  -3.54686 
 H                     5.23453  -7.76355  -2.64654 
 H                     4.95494  -6.42008  -3.79286 
 H                     4.15531  -7.99575  -4.04984 
 H                    -4.78743  -5.44306   2.81984 
 H                    -5.12475  -3.91885   0.8964 
 H                    -2.70422  -6.81007   2.97125 
 H                    -1.00203  -6.65103   1.14352 
 O                    -1.12804  -5.16609  -0.94619 
 O                     5.20879  -1.07668   1.95315 
 H                     7.28317  -1.32373   3.69649 
 H                     7.81272  -3.38353   4.93721 
 H                     6.39887  -5.41905   4.65751 
 H                     4.42311  -5.33393   3.13868 
 H                     3.67564   6.12202   2.54105 
 H                     4.24299   4.05386   1.27044 
 H                     2.14404   7.80274   1.51527 
 H                     1.21809   7.42839  -0.73501 
 O                     1.74485   5.24366  -2.2652 
 O                    -5.26977   0.88608   1.83968 
 H                    -7.5123    1.03567   3.36544 
 H                    -8.23891   3.05198   4.57965 
 H                    -6.86813   5.13531   4.48076 
 H                    -4.74962   5.14399   3.17908 
 C                     0.9063    6.19027  -2.914 
 C                    -6.00306  -0.32699   1.87062 
 C                    -1.45926  -5.77829  -2.19541 
 C                     6.01361   0.09038   2.0262 
 H                     0.69093   5.76492  -3.89592 
 H                     1.41632   7.15473  -3.04129 
 H                    -0.0343    6.34666  -2.37291 
 H                     7.05415  -0.12014   1.74634 
 H                     5.99141   0.53169   3.03147 
 H                     5.58677   0.79181   1.30768 
 H                    -0.5782   -5.66651  -2.83045 
 H                    -2.3158   -5.28728  -2.66934 
 H                    -1.67974  -6.84542  -2.05839 
 H                    -5.46048  -1.01812   1.22323 
 H                    -7.02237  -0.19359   1.48381 
 H                    -6.05414  -0.74161   2.886 
 
 NAtoms=    161 NQM=    161 NQMF=      0 NMic=      0 NMicF=      0 NTot=    161.
                    Isotopes and Nuclear Properties:
 (Nuclear quadrupole moments (NQMom) in fm**2, nuclear magnetic moments (NMagM)
  in nuclear magnetons)

  Atom         1           2           3           4           5           6           7           8           9          10
 IAtWgt=          12          12          12          12          12          12          12          12          12          12
 AtmWgt=  12.0000000  12.0000000  12.0000000  12.0000000  12.0000000  12.0000000  12.0000000  12.0000000  12.0000000  12.0000000
 NucSpn=           0           0           0           0           0           0           0           0           0           0
 AtZEff=   0.0000000   0.0000000   0.0000000   0.0000000   0.0000000   0.0000000   0.0000000   0.0000000   0.0000000   0.0000000
 NQMom=    0.0000000   0.0000000   0.0000000   0.0000000   0.0000000   0.0000000   0.0000000   0.0000000   0.0000000   0.0000000
 NMagM=    0.0000000   0.0000000   0.0000000   0.0000000   0.0000000   0.0000000   0.0000000   0.0000000   0.0000000   0.0000000

  Atom        11          12          13          14          15          16          17          18          19          20
 IAtWgt=          12          12          12          12          12          12          12          12          12          12
 AtmWgt=  12.0000000  12.0000000  12.0000000  12.0000000  12.0000000  12.0000000  12.0000000  12.0000000  12.0000000  12.0000000
 NucSpn=           0           0           0           0           0           0           0           0           0           0
 AtZEff=   0.0000000   0.0000000   0.0000000   0.0000000   0.0000000   0.0000000   0.0000000   0.0000000   0.0000000   0.0000000
 NQMom=    0.0000000   0.0000000   0.0000000   0.0000000   0.0000000   0.0000000   0.0000000   0.0000000   0.0000000   0.0000000
 NMagM=    0.0000000   0.0000000   0.0000000   0.0000000   0.0000000   0.0000000   0.0000000   0.0000000   0.0000000   0.0000000

  Atom        21          22          23          24          25          26          27          28          29          30
 IAtWgt=          12          12          12          12          12          14          14          14          14          12
 AtmWgt=  12.0000000  12.0000000  12.0000000  12.0000000  12.0000000  14.0030740  14.0030740  14.0030740  14.0030740  12.0000000
 NucSpn=           0           0           0           0           0           2           2           2           2           0
 AtZEff=   0.0000000   0.0000000   0.0000000   0.0000000   0.0000000   0.0000000   0.0000000   0.0000000   0.0000000   0.0000000
 NQMom=    0.0000000   0.0000000   0.0000000   0.0000000   0.0000000   2.0440000   2.0440000   2.0440000   2.0440000   0.0000000
 NMagM=    0.0000000   0.0000000   0.0000000   0.0000000   0.0000000   0.4037610   0.4037610   0.4037610   0.4037610   0.0000000

  Atom        31          32          33          34          35          36          37          38          39          40
 IAtWgt=          12          12          12          12          12          12          12          12          12          12
 AtmWgt=  12.0000000  12.0000000  12.0000000  12.0000000  12.0000000  12.0000000  12.0000000  12.0000000  12.0000000  12.0000000
 NucSpn=           0           0           0           0           0           0           0           0           0           0
 AtZEff=   0.0000000   0.0000000   0.0000000   0.0000000   0.0000000   0.0000000   0.0000000   0.0000000   0.0000000   0.0000000
 NQMom=    0.0000000   0.0000000   0.0000000   0.0000000   0.0000000   0.0000000   0.0000000   0.0000000   0.0000000   0.0000000
 NMagM=    0.0000000   0.0000000   0.0000000   0.0000000   0.0000000   0.0000000   0.0000000   0.0000000   0.0000000   0.0000000

  Atom        41          42          43          44          45          46          47          48          49          50
 IAtWgt=          12          12          12          12          12          12          12          12          12          12
 AtmWgt=  12.0000000  12.0000000  12.0000000  12.0000000  12.0000000  12.0000000  12.0000000  12.0000000  12.0000000  12.0000000
 NucSpn=           0           0           0           0           0           0           0           0           0           0
 AtZEff=   0.0000000   0.0000000   0.0000000   0.0000000   0.0000000   0.0000000   0.0000000   0.0000000   0.0000000   0.0000000
 NQMom=    0.0000000   0.0000000   0.0000000   0.0000000   0.0000000   0.0000000   0.0000000   0.0000000   0.0000000   0.0000000
 NMagM=    0.0000000   0.0000000   0.0000000   0.0000000   0.0000000   0.0000000   0.0000000   0.0000000   0.0000000   0.0000000

  Atom        51          52          53          54          55          56          57          58          59          60
 IAtWgt=          12          12          12          12          12          12          12          12          12          12
 AtmWgt=  12.0000000  12.0000000  12.0000000  12.0000000  12.0000000  12.0000000  12.0000000  12.0000000  12.0000000  12.0000000
 NucSpn=           0           0           0           0           0           0           0           0           0           0
 AtZEff=   0.0000000   0.0000000   0.0000000   0.0000000   0.0000000   0.0000000   0.0000000   0.0000000   0.0000000   0.0000000
 NQMom=    0.0000000   0.0000000   0.0000000   0.0000000   0.0000000   0.0000000   0.0000000   0.0000000   0.0000000   0.0000000
 NMagM=    0.0000000   0.0000000   0.0000000   0.0000000   0.0000000   0.0000000   0.0000000   0.0000000   0.0000000   0.0000000

  Atom        61          62          63          64          65          66          67          68          69          70
 IAtWgt=          12          12          12          12          12          12          12          12          12          12
 AtmWgt=  12.0000000  12.0000000  12.0000000  12.0000000  12.0000000  12.0000000  12.0000000  12.0000000  12.0000000  12.0000000
 NucSpn=           0           0           0           0           0           0           0           0           0           0
 AtZEff=   0.0000000   0.0000000   0.0000000   0.0000000   0.0000000   0.0000000   0.0000000   0.0000000   0.0000000   0.0000000
 NQMom=    0.0000000   0.0000000   0.0000000   0.0000000   0.0000000   0.0000000   0.0000000   0.0000000   0.0000000   0.0000000
 NMagM=    0.0000000   0.0000000   0.0000000   0.0000000   0.0000000   0.0000000   0.0000000   0.0000000   0.0000000   0.0000000

  Atom        71          72          73          74          75          76          77          78          79          80
 IAtWgt=          12          12          12          12          12          12          12           1           1           1
 AtmWgt=  12.0000000  12.0000000  12.0000000  12.0000000  12.0000000  12.0000000  12.0000000   1.0078250   1.0078250   1.0078250
 NucSpn=           0           0           0           0           0           0           0           1           1           1
 AtZEff=   0.0000000   0.0000000   0.0000000   0.0000000   0.0000000   0.0000000   0.0000000   0.0000000   0.0000000   0.0000000
 NQMom=    0.0000000   0.0000000   0.0000000   0.0000000   0.0000000   0.0000000   0.0000000   0.0000000   0.0000000   0.0000000
 NMagM=    0.0000000   0.0000000   0.0000000   0.0000000   0.0000000   0.0000000   0.0000000   2.7928460   2.7928460   2.7928460

  Atom        81          82          83          84          85          86          87          88          89          90
 IAtWgt=           1           1           1           1           1           1           1           1           1          16
 AtmWgt=   1.0078250   1.0078250   1.0078250   1.0078250   1.0078250   1.0078250   1.0078250   1.0078250   1.0078250  15.9949146
 NucSpn=           1           1           1           1           1           1           1           1           1           0
 AtZEff=   0.0000000   0.0000000   0.0000000   0.0000000   0.0000000   0.0000000   0.0000000   0.0000000   0.0000000   0.0000000
 NQMom=    0.0000000   0.0000000   0.0000000   0.0000000   0.0000000   0.0000000   0.0000000   0.0000000   0.0000000   0.0000000
 NMagM=    2.7928460   2.7928460   2.7928460   2.7928460   2.7928460   2.7928460   2.7928460   2.7928460   2.7928460   0.0000000

  Atom        91          92          93          94          95          96          97          98          99         100
 IAtWgt=          12          16          12          16          16          12          12           1           1           1
 AtmWgt=  12.0000000  15.9949146  12.0000000  15.9949146  15.9949146  12.0000000  12.0000000   1.0078250   1.0078250   1.0078250
 NucSpn=           0           0           0           0           0           0           0           1           1           1
 AtZEff=   0.0000000   0.0000000   0.0000000   0.0000000   0.0000000   0.0000000   0.0000000   0.0000000   0.0000000   0.0000000
 NQMom=    0.0000000   0.0000000   0.0000000   0.0000000   0.0000000   0.0000000   0.0000000   0.0000000   0.0000000   0.0000000
 NMagM=    0.0000000   0.0000000   0.0000000   0.0000000   0.0000000   0.0000000   0.0000000   2.7928460   2.7928460   2.7928460

  Atom       101         102         103         104         105         106         107         108         109         110
 IAtWgt=           1           1           1           1           1           1           1           1           1           1
 AtmWgt=   1.0078250   1.0078250   1.0078250   1.0078250   1.0078250   1.0078250   1.0078250   1.0078250   1.0078250   1.0078250
 NucSpn=           1           1           1           1           1           1           1           1           1           1
 AtZEff=   0.0000000   0.0000000   0.0000000   0.0000000   0.0000000   0.0000000   0.0000000   0.0000000   0.0000000   0.0000000
 NQMom=    0.0000000   0.0000000   0.0000000   0.0000000   0.0000000   0.0000000   0.0000000   0.0000000   0.0000000   0.0000000
 NMagM=    2.7928460   2.7928460   2.7928460   2.7928460   2.7928460   2.7928460   2.7928460   2.7928460   2.7928460   2.7928460

  Atom       111         112         113         114         115         116         117         118         119         120
 IAtWgt=           1           1           1           1           1           1           1           1           1           1
 AtmWgt=   1.0078250   1.0078250   1.0078250   1.0078250   1.0078250   1.0078250   1.0078250   1.0078250   1.0078250   1.0078250
 NucSpn=           1           1           1           1           1           1           1           1           1           1
 AtZEff=   0.0000000   0.0000000   0.0000000   0.0000000   0.0000000   0.0000000   0.0000000   0.0000000   0.0000000   0.0000000
 NQMom=    0.0000000   0.0000000   0.0000000   0.0000000   0.0000000   0.0000000   0.0000000   0.0000000   0.0000000   0.0000000
 NMagM=    2.7928460   2.7928460   2.7928460   2.7928460   2.7928460   2.7928460   2.7928460   2.7928460   2.7928460   2.7928460

  Atom       121         122         123         124         125         126         127         128         129         130
 IAtWgt=           1           1           1           1           1           1           1           1           1          16
 AtmWgt=   1.0078250   1.0078250   1.0078250   1.0078250   1.0078250   1.0078250   1.0078250   1.0078250   1.0078250  15.9949146
 NucSpn=           1           1           1           1           1           1           1           1           1           0
 AtZEff=   0.0000000   0.0000000   0.0000000   0.0000000   0.0000000   0.0000000   0.0000000   0.0000000   0.0000000   0.0000000
 NQMom=    0.0000000   0.0000000   0.0000000   0.0000000   0.0000000   0.0000000   0.0000000   0.0000000   0.0000000   0.0000000
 NMagM=    2.7928460   2.7928460   2.7928460   2.7928460   2.7928460   2.7928460   2.7928460   2.7928460   2.7928460   0.0000000

  Atom       131         132         133         134         135         136         137         138         139         140
 IAtWgt=          16           1           1           1           1           1           1           1           1          16
 AtmWgt=  15.9949146   1.0078250   1.0078250   1.0078250   1.0078250   1.0078250   1.0078250   1.0078250   1.0078250  15.9949146
 NucSpn=           0           1           1           1           1           1           1           1           1           0
 AtZEff=   0.0000000   0.0000000   0.0000000   0.0000000   0.0000000   0.0000000   0.0000000   0.0000000   0.0000000   0.0000000
 NQMom=    0.0000000   0.0000000   0.0000000   0.0000000   0.0000000   0.0000000   0.0000000   0.0000000   0.0000000   0.0000000
 NMagM=    0.0000000   2.7928460   2.7928460   2.7928460   2.7928460   2.7928460   2.7928460   2.7928460   2.7928460   0.0000000

  Atom       141         142         143         144         145         146         147         148         149         150
 IAtWgt=          16           1           1           1           1          12          12          12          12           1
 AtmWgt=  15.9949146   1.0078250   1.0078250   1.0078250   1.0078250  12.0000000  12.0000000  12.0000000  12.0000000   1.0078250
 NucSpn=           0           1           1           1           1           0           0           0           0           1
 AtZEff=   0.0000000   0.0000000   0.0000000   0.0000000   0.0000000   0.0000000   0.0000000   0.0000000   0.0000000   0.0000000
 NQMom=    0.0000000   0.0000000   0.0000000   0.0000000   0.0000000   0.0000000   0.0000000   0.0000000   0.0000000   0.0000000
 NMagM=    0.0000000   2.7928460   2.7928460   2.7928460   2.7928460   0.0000000   0.0000000   0.0000000   0.0000000   2.7928460

  Atom       151         152         153         154         155         156         157         158         159         160
 IAtWgt=           1           1           1           1           1           1           1           1           1           1
 AtmWgt=   1.0078250   1.0078250   1.0078250   1.0078250   1.0078250   1.0078250   1.0078250   1.0078250   1.0078250   1.0078250
 NucSpn=           1           1           1           1           1           1           1           1           1           1
 AtZEff=   0.0000000   0.0000000   0.0000000   0.0000000   0.0000000   0.0000000   0.0000000   0.0000000   0.0000000   0.0000000
 NQMom=    0.0000000   0.0000000   0.0000000   0.0000000   0.0000000   0.0000000   0.0000000   0.0000000   0.0000000   0.0000000
 NMagM=    2.7928460   2.7928460   2.7928460   2.7928460   2.7928460   2.7928460   2.7928460   2.7928460   2.7928460   2.7928460

  Atom       161
 IAtWgt=           1
 AtmWgt=   1.0078250
 NucSpn=           1
 AtZEff=   0.0000000
 NQMom=    0.0000000
 NMagM=    2.7928460
 Leave Link  101 at Tue Feb  3 00:53:01 2015, MaxMem= 2147483648 cpu:       3.5
 (Enter /opt/g09/l202.exe)
 Stoichiometry    C81H68N4O8
 Framework group  C1[X(C81H68N4O8)]
 Deg. of freedom   477
 Full point group                 C1      NOp   1
 Largest Abelian subgroup         C1      NOp   1
 Largest concise Abelian subgroup C1      NOp   1
                         Standard orientation:                         
 ---------------------------------------------------------------------
 Center     Atomic      Atomic             Coordinates (Angstroms)
 Number     Number       Type             X           Y           Z
 ---------------------------------------------------------------------
      1          6           0       -0.062812   -0.045654    0.293071
      2          6           0       -0.871139   -0.911931   -0.680626
      3          6           0       -0.557952   -0.584575   -2.012705
      4          6           0        0.465023    0.465280   -2.011271
      5          6           0        0.746724    0.819596   -0.677833
      6          6           0       -0.949237    0.726992    1.277296
      7          6           0       -0.650342    0.358602    2.605755
      8          6           0        0.453962   -0.602872    2.590736
      9          6           0        0.813509   -0.862366    1.253160
     10          6           0       -1.957273    1.631840    0.992963
     11          6           0       -2.696110    2.193375    2.051195
     12          6           0       -2.407169    1.819806    3.373820
     13          6           0       -1.392483    0.904361    3.654489
     14          6           0        1.150577    1.088079   -3.058743
     15          6           0        2.107010    2.056551   -2.764696
     16          6           0        2.387585    2.412185   -1.434762
     17          6           0        1.693543    1.791961   -0.383528
     18          6           0       -1.819085   -1.878995   -0.380956
     19          6           0       -2.478064   -2.539606   -1.431000
     20          6           0       -2.169161   -2.209945   -2.763643
     21          6           0       -1.216557   -1.237925   -3.058086
     22          6           0        1.152130   -1.233848    3.621674
     23          6           0        2.184094   -2.117019    3.311355
     24          6           0        2.543490   -2.376439    1.975058
     25          6           0        1.843827   -1.731400    0.936327
     26          7           0       -3.725996    3.133028    1.770568
     27          7           0        3.400318    3.380876   -1.153960
     28          7           0       -3.465152   -3.531863   -1.158792
     29          7           0        3.606480   -3.266812    1.690515
     30          6           0        4.732602   -3.300942    2.561979
     31          6           0       -3.273630   -4.421303   -0.066004
     32          6           0        3.553890   -4.169387    0.594835
     33          6           0       -4.751798   -3.434922   -1.759574
     34          6           0       -3.446883    4.239082    0.923033
     35          6           0       -4.927578    3.115322    2.526683
     36          6           0        4.747216    3.129569   -1.500709
     37          6           0        3.051912    4.555738   -0.429788
     38          6           0        5.652512    4.182146   -1.699954
     39          6           0        6.988984    3.939534   -2.025002
     40          6           0        7.448965    2.628449   -2.178829
     41          6           0        6.550783    1.569860   -1.993149
     42          6           0        5.226284    1.812087   -1.651153
     43          6           0       -4.412869    4.724633    0.033738
     44          6           0       -4.142794    5.808250   -0.805744
     45          6           0       -2.881810    6.412701   -0.778767
     46          6           0       -1.911784    5.937706    0.113036
     47          6           0       -2.192052    4.872448    0.955756
     48          6           0       -5.362180    4.248410    3.221989
     49          6           0       -6.552821    4.241293    3.950547
     50          6           0       -7.315419    3.077869    4.007656
     51          6           0       -6.901712    1.930551    3.323631
     52          6           0       -5.724342    1.942228    2.569882
     53          6           0        3.574065    4.796075    0.844251
     54          6           0        3.260227    5.957814    1.551113
     55          6           0        2.401816    6.893750    0.978442
     56          6           0        1.867430    6.679625   -0.295335
     57          6           0        2.190103    5.519030   -1.009974
     58          6           0       -2.113200   -5.224172    0.014530
     59          6           0       -1.914148   -6.062347    1.112330
     60          6           0       -2.868220   -6.147767    2.126029
     61          6           0       -4.034373   -5.385575    2.038727
     62          6           0       -4.226525   -4.525764    0.959259
     63          6           0       -5.329554   -2.196014   -2.061777
     64          6           0       -6.585074   -2.113015   -2.670928
     65          6           0       -7.298670   -3.278238   -2.966866
     66          6           0       -6.733176   -4.523425   -2.654143
     67          6           0       -5.477417   -4.600522   -2.070128
     68          6           0        2.342360   -4.764041    0.196133
     69          6           0        2.305629   -5.657884   -0.864024
     70          6           0        3.478458   -6.004888   -1.547892
     71          6           0        4.690339   -5.428065   -1.156656
     72          6           0        4.718678   -4.510721   -0.103342
     73          6           0        5.554835   -2.155778    2.705493
     74          6           0        6.651117   -2.196007    3.574234
     75          6           0        6.952671   -3.368507    4.273072
     76          6           0        6.165004   -4.506660    4.116713
     77          6           0        5.056685   -4.461372    3.269015
     78          1           0        2.124793   -1.912242   -0.096137
     79          1           0       -2.062322   -2.120670    0.649138
     80          1           0       -2.687569   -2.723849   -3.567331
     81          1           0       -0.989215   -1.001515   -4.094555
     82          1           0        0.943378    0.825919   -4.093304
     83          1           0        2.648262    2.557722   -3.560629
     84          1           0        0.893577   -1.053189    4.662258
     85          1           0        2.721357   -2.620894    4.108316
     86          1           0       -1.181461    0.633069    4.685994
     87          1           0       -2.981588    2.259375    4.183558
     88          1           0        1.923053    2.058895    0.644061
     89          1           0       -2.195350    1.904905   -0.030483
     90          8           0        3.331374   -6.905730   -2.571499
     91          6           0        4.489093   -7.281364   -3.294239
     92          8           0       -8.534679   -3.314281   -3.552823
     93          6           0       -9.147613   -2.081707   -3.888772
     94          8           0        8.735962    2.277473   -2.501205
     95          8           0       -2.493815    7.459454   -1.579200
     96          6           0       -3.444410    7.987115   -2.488250
     97          6           0        9.671334    3.318351   -2.711214
     98          1           0        6.913309    0.553056   -2.111295
     99          1           0        4.553095    0.974548   -1.502828
    100          1           0       -5.387424    4.247756   -0.004954
    101          1           0       -4.915308    6.152454   -1.484301
    102          1           0        7.652693    4.785312   -2.167050
    103          1           0        5.311459    5.207026   -1.598887
    104          1           0       -0.941312    6.421577    0.144835
    105          1           0       -1.431298    4.518807    1.643702
    106          1           0        5.663484   -4.059214    0.181671
    107          1           0        5.616547   -5.667728   -1.667050
    108          1           0        1.364001   -6.104321   -1.163667
    109          1           0        1.420049   -4.518636    0.711299
    110          1           0       -6.994066   -1.134045   -2.894406
    111          1           0       -4.790991   -1.283109   -1.829411
    112          1           0       -7.292911   -5.422555   -2.892880
    113          1           0       -5.049206   -5.571906   -1.842924
    114          1           0       -8.546652   -1.513970   -4.612190
    115          1           0       -9.319792   -1.459041   -3.000218
    116          1           0      -10.108224   -2.336578   -4.340615
    117          1           0       -4.328708    8.377642   -1.966757
    118          1           0       -3.765456    7.235335   -3.222197
    119          1           0       -2.943262    8.806159   -3.008213
    120          1           0       10.617785    2.830271   -2.953384
    121          1           0        9.803596    3.935071   -1.811062
    122          1           0        9.376501    3.968390   -3.546862
    123          1           0        5.234533   -7.763548   -2.646542
    124          1           0        4.954944   -6.420078   -3.792863
    125          1           0        4.155305   -7.995752   -4.049840
    126          1           0       -4.787432   -5.443057    2.819837
    127          1           0       -5.124748   -3.918851    0.896402
    128          1           0       -2.704218   -6.810070    2.971249
    129          1           0       -1.002029   -6.651030    1.143522
    130          8           0       -1.128044   -5.166092   -0.946187
    131          8           0        5.208793   -1.076679    1.953150
    132          1           0        7.283168   -1.323734    3.696491
    133          1           0        7.812719   -3.383532    4.937211
    134          1           0        6.398872   -5.419052    4.657508
    135          1           0        4.423106   -5.333928    3.138683
    136          1           0        3.675637    6.122023    2.541046
    137          1           0        4.242990    4.053863    1.270443
    138          1           0        2.144037    7.802735    1.515266
    139          1           0        1.218089    7.428391   -0.735010
    140          8           0        1.744848    5.243656   -2.265205
    141          8           0       -5.269765    0.886080    1.839684
    142          1           0       -7.512302    1.035670    3.365441
    143          1           0       -8.238906    3.051979    4.579651
    144          1           0       -6.868129    5.135311    4.480757
    145          1           0       -4.749618    5.143993    3.179081
    146          6           0        0.906295    6.190265   -2.913999
    147          6           0       -6.003061   -0.326988    1.870621
    148          6           0       -1.459261   -5.778287   -2.195407
    149          6           0        6.013606    0.090378    2.026204
    150          1           0        0.690925    5.764918   -3.895918
    151          1           0        1.416317    7.154725   -3.041293
    152          1           0       -0.034302    6.346659   -2.372905
    153          1           0        7.054150   -0.120141    1.746341
    154          1           0        5.991415    0.531691    3.031473
    155          1           0        5.586771    0.791810    1.307684
    156          1           0       -0.578203   -5.666509   -2.830452
    157          1           0       -2.315801   -5.287275   -2.669343
    158          1           0       -1.679740   -6.845421   -2.058389
    159          1           0       -5.460479   -1.018116    1.223232
    160          1           0       -7.022371   -0.193591    1.483805
    161          1           0       -6.054144   -0.741607    2.886001
 ---------------------------------------------------------------------
 Rotational constants (GHZ):      0.0195326      0.0166684      0.0115188
 Leave Link  202 at Tue Feb  3 00:53:01 2015, MaxMem= 2147483648 cpu:       1.0
 (Enter /opt/g09/l301.exe)
 Standard basis: CC-pVDZ (5D, 7F)
 Ernie: Thresh=  0.10000D-02 Tol=  0.10000D-05 Strict=F.
 Ernie:  186 primitive shells out of 2386 were deleted.
 There are  1642 symmetry adapted basis functions of A   symmetry.
 Integral buffers will be    131072 words long.
 Raffenetti 2 integral format.
 Two-electron integral symmetry is turned on.
  1642 basis functions,  3545 primitive gaussians,  1735 cartesian basis functions
   323 alpha electrons      323 beta electrons
       nuclear repulsion energy     16972.8364731116 Hartrees.
 IExCor=  402 DFT=T Ex+Corr=B3LYP ExCW=0 ScaHFX=  0.200000
 ScaDFX=  0.800000  0.720000  1.000000  0.810000 ScalE2=  1.000000  1.000000
 IRadAn=      0 IRanWt=     -1 IRanGd=            0 ICorTp=0
 NAtoms=  161 NActive=  161 NUniq=  161 SFac= 7.50D-01 NAtFMM=   80 NAOKFM=T Big=T
 Leave Link  301 at Tue Feb  3 00:53:02 2015, MaxMem= 2147483648 cpu:       1.6
 (Enter /opt/g09/l302.exe)
 NPDir=0 NMtPBC=     1 NCelOv=     1 NCel=       1 NClECP=     1 NCelD=      1
         NCelK=      1 NCelE2=     1 NClLst=     1 CellRange=     0.0.
 One-electron integrals computed using PRISM.
 NBasis=  1642 RedAO= T  NBF=  1642
 NBsUse=  1642 1.00D-06 NBFU=  1642
 Precomputing XC quadrature grid using
 IXCGrd= 2 IRadAn=           0 IRanWt=          -1 IRanGd=           0 AccXCQ= 1.00D-10.
 NRdTot=   10523 NPtTot=     1348232 NUsed=     1423999 NTot=     1424031
 NSgBfM=  1250  1268  1288  1307  1323 NAtAll=   161   161.
 Leave Link  302 at Tue Feb  3 00:53:22 2015, MaxMem= 2147483648 cpu:     499.2
 (Enter /opt/g09/l303.exe)
 DipDrv:  MaxL=1.
 Leave Link  303 at Tue Feb  3 00:53:24 2015, MaxMem= 2147483648 cpu:      37.6
 (Enter /opt/g09/l401.exe)
 Harris functional with IExCor=  402 diagonalized for initial guess.
 ExpMin= 1.22D-01 ExpMax= 1.17D+04 ExpMxC= 4.01D+02 IAcc=1 IRadAn=         1 AccDes= 0.00D+00
 HarFok:  IExCor=  402 AccDes= 0.00D+00 IRadAn=         1 IDoV= 1
 ScaDFX=  1.000000  1.000000  1.000000  1.000000
 FoFCou: FMM=F IPFlag=           0 FMFlag=      100000 FMFlg1=        2001
         NFxFlg=           0 DoJE=T BraDBF=F KetDBF=T FulRan=T
         Omega=  0.000000  0.000000  1.000000  0.000000  0.000000 ICntrl=     500 IOpCl=  0
         NMat0=    1 NMatS0=    1 NMatT0=    0 NMatD0=    1 NMtDS0=    0 NMtDT0=    0
         I1Cent=           4 NGrid=           0.
 Petite list used in FoFCou.
 Harris En= -3948.65400602713    
 Initial guess orbital symmetries:
       Occupied  (A) (A) (A) (A) (A) (A) (A) (A) (A) (A) (A) (A)
                 (A) (A) (A) (A) (A) (A) (A) (A) (A) (A) (A) (A)
                 (A) (A) (A) (A) (A) (A) (A) (A) (A) (A) (A) (A)
                 (A) (A) (A) (A) (A) (A) (A) (A) (A) (A) (A) (A)
                 (A) (A) (A) (A) (A) (A) (A) (A) (A) (A) (A) (A)
                 (A) (A) (A) (A) (A) (A) (A) (A) (A) (A) (A) (A)
                 (A) (A) (A) (A) (A) (A) (A) (A) (A) (A) (A) (A)
                 (A) (A) (A) (A) (A) (A) (A) (A) (A) (A) (A) (A)
                 (A) (A) (A) (A) (A) (A) (A) (A) (A) (A) (A) (A)
                 (A) (A) (A) (A) (A) (A) (A) (A) (A) (A) (A) (A)
                 (A) (A) (A) (A) (A) (A) (A) (A) (A) (A) (A) (A)
                 (A) (A) (A) (A) (A) (A) (A) (A) (A) (A) (A) (A)
                 (A) (A) (A) (A) (A) (A) (A) (A) (A) (A) (A) (A)
                 (A) (A) (A) (A) (A) (A) (A) (A) (A) (A) (A) (A)
                 (A) (A) (A) (A) (A) (A) (A) (A) (A) (A) (A) (A)
                 (A) (A) (A) (A) (A) (A) (A) (A) (A) (A) (A) (A)
                 (A) (A) (A) (A) (A) (A) (A) (A) (A) (A) (A) (A)
                 (A) (A) (A) (A) (A) (A) (A) (A) (A) (A) (A) (A)
                 (A) (A) (A) (A) (A) (A) (A) (A) (A) (A) (A) (A)
                 (A) (A) (A) (A) (A) (A) (A) (A) (A) (A) (A) (A)
                 (A) (A) (A) (A) (A) (A) (A) (A) (A) (A) (A) (A)
                 (A) (A) (A) (A) (A) (A) (A) (A) (A) (A) (A) (A)
                 (A) (A) (A) (A) (A) (A) (A) (A) (A) (A) (A) (A)
                 (A) (A) (A) (A) (A) (A) (A) (A) (A) (A) (A) (A)
                 (A) (A) (A) (A) (A) (A) (A) (A) (A) (A) (A) (A)
                 (A) (A) (A) (A) (A) (A) (A) (A) (A) (A) (A) (A)
                 (A) (A) (A) (A) (A) (A) (A) (A) (A) (A) (A)
       Virtual   (A) (A) (A) (A) (A) (A) (A) (A) (A) (A) (A) (A)
                 (A) (A) (A) (A) (A) (A) (A) (A) (A) (A) (A) (A)
                 (A) (A) (A) (A) (A) (A) (A) (A) (A) (A) (A) (A)
                 (A) (A) (A) (A) (A) (A) (A) (A) (A) (A) (A) (A)
                 (A) (A) (A) (A) (A) (A) (A) (A) (A) (A) (A) (A)
                 (A) (A) (A) (A) (A) (A) (A) (A) (A) (A) (A) (A)
                 (A) (A) (A) (A) (A) (A) (A) (A) (A) (A) (A) (A)
                 (A) (A) (A) (A) (A) (A) (A) (A) (A) (A) (A) (A)
                 (A) (A) (A) (A) (A) (A) (A) (A) (A) (A) (A) (A)
                 (A) (A) (A) (A) (A) (A) (A) (A) (A) (A) (A) (A)
                 (A) (A) (A) (A) (A) (A) (A) (A) (A) (A) (A) (A)
                 (A) (A) (A) (A) (A) (A) (A) (A) (A) (A) (A) (A)
                 (A) (A) (A) (A) (A) (A) (A) (A) (A) (A) (A) (A)
                 (A) (A) (A) (A) (A) (A) (A) (A) (A) (A) (A) (A)
                 (A) (A) (A) (A) (A) (A) (A) (A) (A) (A) (A) (A)
                 (A) (A) (A) (A) (A) (A) (A) (A) (A) (A) (A) (A)
                 (A) (A) (A) (A) (A) (A) (A) (A) (A) (A) (A) (A)
                 (A) (A) (A) (A) (A) (A) (A) (A) (A) (A) (A) (A)
                 (A) (A) (A) (A) (A) (A) (A) (A) (A) (A) (A) (A)
                 (A) (A) (A) (A) (A) (A) (A) (A) (A) (A) (A) (A)
                 (A) (A) (A) (A) (A) (A) (A) (A) (A) (A) (A) (A)
                 (A) (A) (A) (A) (A) (A) (A) (A) (A) (A) (A) (A)
                 (A) (A) (A) (A) (A) (A) (A) (A) (A) (A) (A) (A)
                 (A) (A) (A) (A) (A) (A) (A) (A) (A) (A) (A) (A)
                 (A) (A) (A) (A) (A) (A) (A) (A) (A) (A) (A) (A)
                 (A) (A) (A) (A) (A) (A) (A) (A) (A) (A) (A) (A)
                 (A) (A) (A) (A) (A) (A) (A) (A) (A) (A) (A) (A)
                 (A) (A) (A) (A) (A) (A) (A) (A) (A) (A) (A) (A)
                 (A) (A) (A) (A) (A) (A) (A) (A) (A) (A) (A) (A)
                 (A) (A) (A) (A) (A) (A) (A) (A) (A) (A) (A) (A)
                 (A) (A) (A) (A) (A) (A) (A) (A) (A) (A) (A) (A)
                 (A) (A) (A) (A) (A) (A) (A) (A) (A) (A) (A) (A)
                 (A) (A) (A) (A) (A) (A) (A) (A) (A) (A) (A) (A)
                 (A) (A) (A) (A) (A) (A) (A) (A) (A) (A) (A) (A)
                 (A) (A) (A) (A) (A) (A) (A) (A) (A) (A) (A) (A)
                 (A) (A) (A) (A) (A) (A) (A) (A) (A) (A) (A) (A)
                 (A) (A) (A) (A) (A) (A) (A) (A) (A) (A) (A) (A)
                 (A) (A) (A) (A) (A) (A) (A) (A) (A) (A) (A) (A)
                 (A) (A) (A) (A) (A) (A) (A) (A) (A) (A) (A) (A)
                 (A) (A) (A) (A) (A) (A) (A) (A) (A) (A) (A) (A)
                 (A) (A) (A) (A) (A) (A) (A) (A) (A) (A) (A) (A)
                 (A) (A) (A) (A) (A) (A) (A) (A) (A) (A) (A) (A)
                 (A) (A) (A) (A) (A) (A) (A) (A) (A) (A) (A) (A)
                 (A) (A) (A) (A) (A) (A) (A) (A) (A) (A) (A) (A)
                 (A) (A) (A) (A) (A) (A) (A) (A) (A) (A) (A) (A)
                 (A) (A) (A) (A) (A) (A) (A) (A) (A) (A) (A) (A)
                 (A) (A) (A) (A) (A) (A) (A) (A) (A) (A) (A) (A)
                 (A) (A) (A) (A) (A) (A) (A) (A) (A) (A) (A) (A)
                 (A) (A) (A) (A) (A) (A) (A) (A) (A) (A) (A) (A)
                 (A) (A) (A) (A) (A) (A) (A) (A) (A) (A) (A) (A)
                 (A) (A) (A) (A) (A) (A) (A) (A) (A) (A) (A) (A)
                 (A) (A) (A) (A) (A) (A) (A) (A) (A) (A) (A) (A)
                 (A) (A) (A) (A) (A) (A) (A) (A) (A) (A) (A) (A)
                 (A) (A) (A) (A) (A) (A) (A) (A) (A) (A) (A) (A)
                 (A) (A) (A) (A) (A) (A) (A) (A) (A) (A) (A) (A)
                 (A) (A) (A) (A) (A) (A) (A) (A) (A) (A) (A) (A)
                 (A) (A) (A) (A) (A) (A) (A) (A) (A) (A) (A) (A)
                 (A) (A) (A) (A) (A) (A) (A) (A) (A) (A) (A) (A)
                 (A) (A) (A) (A) (A) (A) (A) (A) (A) (A) (A) (A)
                 (A) (A) (A) (A) (A) (A) (A) (A) (A) (A) (A) (A)
                 (A) (A) (A) (A) (A) (A) (A) (A) (A) (A) (A) (A)
                 (A) (A) (A) (A) (A) (A) (A) (A) (A) (A) (A) (A)
                 (A) (A) (A) (A) (A) (A) (A) (A) (A) (A) (A) (A)
                 (A) (A) (A) (A) (A) (A) (A) (A) (A) (A) (A) (A)
                 (A) (A) (A) (A) (A) (A) (A) (A) (A) (A) (A) (A)
                 (A) (A) (A) (A) (A) (A) (A) (A) (A) (A) (A) (A)
                 (A) (A) (A) (A) (A) (A) (A) (A) (A) (A) (A) (A)
                 (A) (A) (A) (A) (A) (A) (A) (A) (A) (A) (A) (A)
                 (A) (A) (A) (A) (A) (A) (A) (A) (A) (A) (A) (A)
                 (A) (A) (A) (A) (A) (A) (A) (A) (A) (A) (A) (A)
                 (A) (A) (A) (A) (A) (A) (A) (A) (A) (A) (A) (A)
                 (A) (A) (A) (A) (A) (A) (A) (A) (A) (A) (A) (A)
                 (A) (A) (A) (A) (A) (A) (A) (A) (A) (A) (A) (A)
                 (A) (A) (A) (A) (A) (A) (A) (A) (A) (A) (A) (A)
                 (A) (A) (A) (A) (A) (A) (A) (A) (A) (A) (A) (A)
                 (A) (A) (A) (A) (A) (A) (A) (A) (A) (A) (A) (A)
                 (A) (A) (A) (A) (A) (A) (A) (A) (A) (A) (A) (A)
                 (A) (A) (A) (A) (A) (A) (A) (A) (A) (A) (A) (A)
                 (A) (A) (A) (A) (A) (A) (A) (A) (A) (A) (A) (A)
                 (A) (A) (A) (A) (A) (A) (A) (A) (A) (A) (A) (A)
                 (A) (A) (A) (A) (A) (A) (A) (A) (A) (A) (A) (A)
                 (A) (A) (A) (A) (A) (A) (A) (A) (A) (A) (A) (A)
                 (A) (A) (A) (A) (A) (A) (A) (A) (A) (A) (A) (A)
                 (A) (A) (A) (A) (A) (A) (A) (A) (A) (A) (A) (A)
                 (A) (A) (A) (A) (A) (A) (A) (A) (A) (A) (A) (A)
                 (A) (A) (A) (A) (A) (A) (A) (A) (A) (A) (A) (A)
                 (A) (A) (A) (A) (A) (A) (A) (A) (A) (A) (A) (A)
                 (A) (A) (A) (A) (A) (A) (A) (A) (A) (A) (A) (A)
                 (A) (A) (A) (A) (A) (A) (A) (A) (A) (A) (A) (A)
                 (A) (A) (A) (A) (A) (A) (A) (A) (A) (A) (A) (A)
                 (A) (A) (A) (A) (A) (A) (A) (A) (A) (A) (A) (A)
                 (A) (A) (A) (A) (A) (A) (A) (A) (A) (A) (A) (A)
                 (A) (A) (A) (A) (A) (A) (A) (A) (A) (A) (A) (A)
                 (A) (A) (A) (A) (A) (A) (A) (A) (A) (A) (A) (A)
                 (A) (A) (A) (A) (A) (A) (A) (A) (A) (A) (A) (A)
                 (A) (A) (A) (A) (A) (A) (A) (A) (A) (A) (A) (A)
                 (A) (A) (A) (A) (A) (A) (A) (A) (A) (A) (A) (A)
                 (A) (A) (A) (A) (A) (A) (A) (A) (A) (A) (A) (A)
                 (A) (A) (A) (A) (A) (A) (A) (A) (A) (A) (A) (A)
                 (A) (A) (A) (A) (A) (A) (A) (A) (A) (A) (A) (A)
                 (A) (A) (A) (A) (A) (A) (A) (A) (A) (A) (A) (A)
                 (A) (A) (A) (A) (A) (A) (A) (A) (A) (A) (A) (A)
                 (A) (A) (A) (A) (A) (A) (A) (A) (A) (A) (A) (A)
                 (A) (A) (A) (A) (A) (A) (A) (A) (A) (A) (A) (A)
                 (A) (A) (A) (A) (A) (A) (A) (A) (A) (A) (A) (A)
                 (A) (A) (A) (A) (A) (A) (A) (A) (A) (A) (A) (A)
                 (A) (A) (A) (A) (A) (A) (A) (A) (A) (A) (A) (A)
                 (A) (A) (A) (A) (A) (A) (A) (A) (A) (A) (A) (A)
                 (A) (A) (A) (A) (A) (A) (A) (A) (A) (A) (A) (A)
                 (A) (A) (A) (A) (A) (A) (A) (A) (A) (A) (A)
 The electronic state of the initial guess is 1-A.
 Leave Link  401 at Tue Feb  3 00:53:46 2015, MaxMem= 2147483648 cpu:     528.7
 (Enter /opt/g09/l502.exe)
 Closed shell SCF:
 Requested convergence on RMS density matrix=1.00D-08 within 128 cycles.
 Requested convergence on MAX density matrix=1.00D-06.
 Requested convergence on             energy=1.00D-06.
 No special actions if energy rises.
 Using DIIS extrapolation, IDIIS=  1040.
 Integral symmetry usage will be decided dynamically.
      1422537 words used for storage of precomputed grid.
 IEnd=    10526134 IEndB=    10526134 NGot=  2147483648 MDV=  2139986115
 LenX=  2139986115 LenY=  2136974155
 Fock matrices will be formed incrementally for  20 cycles.
 Integral accuracy reduced to 1.0D-05 until final iterations.

 Cycle   1  Pass 0  IDiag  1:
 FoFCou: FMM=T IPFlag=           0 FMFlag=      100000 FMFlg1=        2001
         NFxFlg=           0 DoJE=F BraDBF=F KetDBF=F FulRan=T
         Omega=  0.000000  0.000000  1.000000  0.000000  0.000000 ICntrl=       0 IOpCl=  0
         NMat0=    1 NMatS0=    1 NMatT0=    0 NMatD0=    1 NMtDS0=    0 NMtDT0=    0
         I1Cent=           0 NGrid=           0.
 Symmetry not used in FoFCou.
 FMM levels:  10  Number of levels for PrismC:   9
 E= -3946.67730133913    
 DIIS: error= 1.66D-02 at cycle   1 NSaved=   1.
 NSaved= 1 IEnMin= 1 EnMin= -3946.67730133913     IErMin= 1 ErrMin= 1.66D-02
 ErrMax= 1.66D-02 EMaxC= 1.00D-01 BMatC= 1.58D+00 BMatP= 1.58D+00
 IDIUse=3 WtCom= 8.34D-01 WtEn= 1.66D-01
 Coeff-Com:  0.100D+01
 Coeff-En:   0.100D+01
 Coeff:      0.100D+01
 Gap=     0.140 Goal=   None    Shift=    0.000
 GapD=    0.140 DampG=1.000 DampE=0.500 DampFc=0.5000 IDamp=-1.
 Damping current iteration by 5.00D-01
 RMSDP=2.22D-03 MaxDP=1.89D-01              OVMax= 1.95D-01

 Cycle   2  Pass 0  IDiag  1:
 RMSU=  7.43D-04    CP:  9.58D-01
 E= -3947.51020112910     Delta-E=       -0.832899789970 Rises=F Damp=T
 DIIS: error= 3.06D-03 at cycle   2 NSaved=   2.
 NSaved= 2 IEnMin= 2 EnMin= -3947.51020112910     IErMin= 2 ErrMin= 3.06D-03
 ErrMax= 3.06D-03 EMaxC= 1.00D-01 BMatC= 1.02D-01 BMatP= 1.58D+00
 IDIUse=3 WtCom= 9.69D-01 WtEn= 3.06D-02
 Coeff-Com:  0.440D-01 0.956D+00
 Coeff-En:   0.497D-01 0.950D+00
 Coeff:      0.441D-01 0.956D+00
 Gap=     0.130 Goal=   None    Shift=    0.000
 RMSDP=7.44D-04 MaxDP=9.85D-02 DE=-8.33D-01 OVMax= 1.58D-01

 Cycle   3  Pass 0  IDiag  1:
 RMSU=  4.74D-04    CP:  9.34D-01  1.23D+00
 E= -3948.32600466829     Delta-E=       -0.815803539190 Rises=F Damp=F
 DIIS: error= 5.23D-03 at cycle   3 NSaved=   3.
 NSaved= 3 IEnMin= 3 EnMin= -3948.32600466829     IErMin= 2 ErrMin= 3.06D-03
 ErrMax= 5.23D-03 EMaxC= 1.00D-01 BMatC= 1.64D-01 BMatP= 1.02D-01
 IDIUse=3 WtCom= 1.21D-01 WtEn= 8.79D-01
 Coeff-Com: -0.236D-01 0.579D+00 0.445D+00
 Coeff-En:   0.000D+00 0.000D+00 0.100D+01
 Coeff:     -0.287D-02 0.703D-01 0.933D+00
 Gap=     0.150 Goal=   None    Shift=    0.000
 RMSDP=8.53D-04 MaxDP=6.60D-02 DE=-8.16D-01 OVMax= 1.78D-01

 Cycle   4  Pass 0  IDiag  1:
 RMSU=  4.04D-04    CP:  9.36D-01  1.30D+00  6.20D-02
 E= -3947.74977093838     Delta-E=        0.576233729913 Rises=F Damp=F
 DIIS: error= 1.10D-02 at cycle   4 NSaved=   4.
 NSaved= 4 IEnMin= 3 EnMin= -3948.32600466829     IErMin= 2 ErrMin= 3.06D-03
 ErrMax= 1.10D-02 EMaxC= 1.00D-01 BMatC= 6.92D-01 BMatP= 1.02D-01
 IDIUse=2 WtCom= 0.00D+00 WtEn= 1.00D+00
 Coeff-En:   0.000D+00 0.000D+00 0.751D+00 0.249D+00
 Coeff:      0.000D+00 0.000D+00 0.751D+00 0.249D+00
 Gap=     0.134 Goal=   None    Shift=    0.000
 RMSDP=4.43D-04 MaxDP=3.50D-02 DE= 5.76D-01 OVMax= 1.01D-01

 Cycle   5  Pass 0  IDiag  1:
 RMSU=  6.31D-05    CP:  9.36D-01  1.25D+00  5.12D-01  4.64D-01
 E= -3948.45485677258     Delta-E=       -0.705085834205 Rises=F Damp=F
 DIIS: error= 2.79D-03 at cycle   5 NSaved=   5.
 NSaved= 5 IEnMin= 5 EnMin= -3948.45485677258     IErMin= 5 ErrMin= 2.79D-03
 ErrMax= 2.79D-03 EMaxC= 1.00D-01 BMatC= 4.49D-02 BMatP= 1.02D-01
 IDIUse=3 WtCom= 9.72D-01 WtEn= 2.79D-02
 Coeff-Com:  0.657D-02 0.162D-01 0.379D+00 0.424D-01 0.556D+00
 Coeff-En:   0.000D+00 0.000D+00 0.266D+00 0.000D+00 0.734D+00
 Coeff:      0.638D-02 0.158D-01 0.376D+00 0.412D-01 0.561D+00
 Gap=     0.129 Goal=   None    Shift=    0.000
 RMSDP=1.50D-04 MaxDP=1.26D-02 DE=-7.05D-01 OVMax= 3.06D-02

 Cycle   6  Pass 0  IDiag  1:
 RMSU=  3.03D-05    CP:  9.36D-01  1.23D+00  6.72D-01  3.13D-01  5.60D-01
 E= -3948.50113399180     Delta-E=       -0.046277219215 Rises=F Damp=F
 DIIS: error= 6.21D-04 at cycle   6 NSaved=   6.
 NSaved= 6 IEnMin= 6 EnMin= -3948.50113399180     IErMin= 6 ErrMin= 6.21D-04
 ErrMax= 6.21D-04 EMaxC= 1.00D-01 BMatC= 1.02D-03 BMatP= 4.49D-02
 IDIUse=3 WtCom= 9.94D-01 WtEn= 6.21D-03
 Coeff-Com:  0.231D-02-0.813D-02 0.117D+00-0.372D-01 0.377D+00 0.549D+00
 Coeff-En:   0.000D+00 0.000D+00 0.000D+00 0.000D+00 0.000D+00 0.100D+01
 Coeff:      0.229D-02-0.808D-02 0.116D+00-0.369D-01 0.375D+00 0.552D+00
 Gap=     0.128 Goal=   None    Shift=    0.000
 RMSDP=2.66D-05 MaxDP=1.64D-03 DE=-4.63D-02 OVMax= 5.89D-03

 Cycle   7  Pass 0  IDiag  1:
 RMSU=  9.19D-06    CP:  9.36D-01  1.24D+00  6.77D-01  3.10D-01  7.08D-01
                    CP:  5.66D-01
 E= -3948.50218688312     Delta-E=       -0.001052891323 Rises=F Damp=F
 DIIS: error= 1.64D-04 at cycle   7 NSaved=   7.
 NSaved= 7 IEnMin= 7 EnMin= -3948.50218688312     IErMin= 7 ErrMin= 1.64D-04
 ErrMax= 1.64D-04 EMaxC= 1.00D-01 BMatC= 1.06D-04 BMatP= 1.02D-03
 IDIUse=3 WtCom= 9.98D-01 WtEn= 1.64D-03
 Coeff-Com:  0.117D-02-0.548D-02 0.589D-01-0.276D-01 0.223D+00 0.367D+00
 Coeff-Com:  0.384D+00
 Coeff-En:   0.000D+00 0.000D+00 0.000D+00 0.000D+00 0.000D+00 0.000D+00
 Coeff-En:   0.100D+01
 Coeff:      0.117D-02-0.547D-02 0.588D-01-0.275D-01 0.222D+00 0.366D+00
 Coeff:      0.385D+00
 Gap=     0.128 Goal=   None    Shift=    0.000
 RMSDP=8.55D-06 MaxDP=6.53D-04 DE=-1.05D-03 OVMax= 1.92D-03

 Initial convergence to 1.0D-05 achieved.  Increase integral accuracy.
 Cycle   8  Pass 1  IDiag  1:
 E= -3948.50180726984     Delta-E=        0.000379613277 Rises=F Damp=F
 DIIS: error= 3.39D-04 at cycle   1 NSaved=   1.
 NSaved= 1 IEnMin= 1 EnMin= -3948.50180726984     IErMin= 1 ErrMin= 3.39D-04
 ErrMax= 3.39D-04 EMaxC= 1.00D-01 BMatC= 1.43D-04 BMatP= 1.43D-04
 IDIUse=3 WtCom= 9.97D-01 WtEn= 3.39D-03
 Coeff-Com:  0.100D+01
 Coeff-En:   0.100D+01
 Coeff:      0.100D+01
 Gap=     0.128 Goal=   None    Shift=    0.000
 RMSDP=8.55D-06 MaxDP=6.53D-04 DE= 3.80D-04 OVMax= 1.75D-03

 Cycle   9  Pass 1  IDiag  1:
 RMSU=  1.35D-04    CP:  9.99D-01
 E= -3948.50189431500     Delta-E=       -0.000087045155 Rises=F Damp=F
 DIIS: error= 1.34D-04 at cycle   2 NSaved=   2.
 NSaved= 2 IEnMin= 2 EnMin= -3948.50189431500     IErMin= 2 ErrMin= 1.34D-04
 ErrMax= 1.34D-04 EMaxC= 1.00D-01 BMatC= 3.92D-05 BMatP= 1.43D-04
 IDIUse=3 WtCom= 9.99D-01 WtEn= 1.34D-03
 Coeff-Com:  0.255D+00 0.745D+00
 Coeff-En:   0.000D+00 0.100D+01
 Coeff:      0.255D+00 0.745D+00
 Gap=     0.129 Goal=   None    Shift=    0.000
 RMSDP=1.24D-05 MaxDP=1.83D-03 DE=-8.70D-05 OVMax= 3.01D-03

 Cycle  10  Pass 1  IDiag  1:
 RMSU=  8.71D-06    CP:  9.99D-01  1.00D+00
 E= -3948.50181390338     Delta-E=        0.000080411617 Rises=F Damp=F
 DIIS: error= 2.29D-04 at cycle   3 NSaved=   3.
 NSaved= 3 IEnMin= 2 EnMin= -3948.50189431500     IErMin= 2 ErrMin= 1.34D-04
 ErrMax= 2.29D-04 EMaxC= 1.00D-01 BMatC= 1.10D-04 BMatP= 3.92D-05
 IDIUse=3 WtCom= 3.98D-01 WtEn= 6.02D-01
 Coeff-Com: -0.865D-03 0.628D+00 0.373D+00
 Coeff-En:   0.000D+00 0.677D+00 0.323D+00
 Coeff:     -0.344D-03 0.657D+00 0.343D+00
 Gap=     0.128 Goal=   None    Shift=    0.000
 RMSDP=6.97D-06 MaxDP=8.78D-04 DE= 8.04D-05 OVMax= 1.74D-03

 Cycle  11  Pass 1  IDiag  1:
 RMSU=  7.08D-07    CP:  9.99D-01  1.01D+00  4.45D-01
 E= -3948.50193584077     Delta-E=       -0.000121937392 Rises=F Damp=F
 DIIS: error= 2.30D-05 at cycle   4 NSaved=   4.
 NSaved= 4 IEnMin= 4 EnMin= -3948.50193584077     IErMin= 4 ErrMin= 2.30D-05
 ErrMax= 2.30D-05 EMaxC= 1.00D-01 BMatC= 2.09D-06 BMatP= 3.92D-05
 IDIUse=1 WtCom= 1.00D+00 WtEn= 0.00D+00
 Coeff-Com: -0.350D-02 0.408D+00 0.198D+00 0.397D+00
 Coeff:     -0.350D-02 0.408D+00 0.198D+00 0.397D+00
 Gap=     0.128 Goal=   None    Shift=    0.000
 RMSDP=1.03D-06 MaxDP=1.29D-04 DE=-1.22D-04 OVMax= 2.20D-04

 Cycle  12  Pass 1  IDiag  1:
 RMSU=  2.38D-07    CP:  9.99D-01  1.01D+00  3.75D-01  5.46D-01
 E= -3948.50193805659     Delta-E=       -0.000002215820 Rises=F Damp=F
 DIIS: error= 2.36D-06 at cycle   5 NSaved=   5.
 NSaved= 5 IEnMin= 5 EnMin= -3948.50193805659     IErMin= 5 ErrMin= 2.36D-06
 ErrMax= 2.36D-06 EMaxC= 1.00D-01 BMatC= 1.77D-08 BMatP= 2.09D-06
 IDIUse=1 WtCom= 1.00D+00 WtEn= 0.00D+00
 Coeff-Com: -0.197D-02 0.207D+00 0.982D-01 0.225D+00 0.471D+00
 Coeff:     -0.197D-02 0.207D+00 0.982D-01 0.225D+00 0.471D+00
 Gap=     0.128 Goal=   None    Shift=    0.000
 RMSDP=1.23D-07 MaxDP=1.09D-05 DE=-2.22D-06 OVMax= 3.06D-05

 Cycle  13  Pass 1  IDiag  1:
 RMSU=  6.77D-08    CP:  9.99D-01  1.01D+00  3.74D-01  5.76D-01  7.91D-01
 E= -3948.50193807377     Delta-E=       -0.000000017171 Rises=F Damp=F
 DIIS: error= 7.22D-07 at cycle   6 NSaved=   6.
 NSaved= 6 IEnMin= 6 EnMin= -3948.50193807377     IErMin= 6 ErrMin= 7.22D-07
 ErrMax= 7.22D-07 EMaxC= 1.00D-01 BMatC= 2.57D-09 BMatP= 1.77D-08
 IDIUse=1 WtCom= 1.00D+00 WtEn= 0.00D+00
 Coeff-Com: -0.854D-03 0.867D-01 0.407D-01 0.987D-01 0.302D+00 0.473D+00
 Coeff:     -0.854D-03 0.867D-01 0.407D-01 0.987D-01 0.302D+00 0.473D+00
 Gap=     0.128 Goal=   None    Shift=    0.000
 RMSDP=4.80D-08 MaxDP=4.07D-06 DE=-1.72D-08 OVMax= 1.41D-05

 Cycle  14  Pass 1  IDiag  1:
 RMSU=  2.55D-08    CP:  9.99D-01  1.01D+00  3.74D-01  5.73D-01  8.34D-01
                    CP:  7.09D-01
 E= -3948.50193807611     Delta-E=       -0.000000002343 Rises=F Damp=F
 DIIS: error= 2.52D-07 at cycle   7 NSaved=   7.
 NSaved= 7 IEnMin= 7 EnMin= -3948.50193807611     IErMin= 7 ErrMin= 2.52D-07
 ErrMax= 2.52D-07 EMaxC= 1.00D-01 BMatC= 3.39D-10 BMatP= 2.57D-09
 IDIUse=1 WtCom= 1.00D+00 WtEn= 0.00D+00
 Coeff-Com: -0.197D-03 0.184D-01 0.859D-02 0.224D-01 0.108D+00 0.302D+00
 Coeff-Com:  0.540D+00
 Coeff:     -0.197D-03 0.184D-01 0.859D-02 0.224D-01 0.108D+00 0.302D+00
 Coeff:      0.540D+00
 Gap=     0.128 Goal=   None    Shift=    0.000
 RMSDP=1.59D-08 MaxDP=2.51D-06 DE=-2.34D-09 OVMax= 3.50D-06

 Cycle  15  Pass 1  IDiag  1:
 RMSU=  7.25D-09    CP:  9.99D-01  1.01D+00  3.75D-01  5.74D-01  8.35D-01
                    CP:  7.66D-01  7.12D-01
 E= -3948.50193807648     Delta-E=       -0.000000000367 Rises=F Damp=F
 DIIS: error= 9.58D-08 at cycle   8 NSaved=   8.
 NSaved= 8 IEnMin= 8 EnMin= -3948.50193807648     IErMin= 8 ErrMin= 9.58D-08
 ErrMax= 9.58D-08 EMaxC= 1.00D-01 BMatC= 3.53D-11 BMatP= 3.39D-10
 IDIUse=1 WtCom= 1.00D+00 WtEn= 0.00D+00
 Coeff-Com:  0.141D-04-0.235D-02-0.113D-02-0.209D-02 0.161D-01 0.104D+00
 Coeff-Com:  0.305D+00 0.579D+00
 Coeff:      0.141D-04-0.235D-02-0.113D-02-0.209D-02 0.161D-01 0.104D+00
 Coeff:      0.305D+00 0.579D+00
 Gap=     0.128 Goal=   None    Shift=    0.000
 RMSDP=5.79D-09 MaxDP=6.31D-07 DE=-3.67D-10 OVMax= 2.11D-06

 SCF Done:  E(RB3LYP) =  -3948.50193808     A.U. after   15 cycles
             Convg  =    0.5786D-08             -V/T =  2.0066
 KE= 3.922768285060D+03 PE=-4.313031818744D+04 EE= 1.828621149119D+04
 Leave Link  502 at Tue Feb  3 01:19:17 2015, MaxMem= 2147483648 cpu:   36690.8
 (Enter /opt/g09/l601.exe)
 Copying SCF densities to generalized density rwf, IOpCl= 0 IROHF=0.

 **********************************************************************

            Population analysis using the SCF density.

 **********************************************************************

 Orbital symmetries:
       Occupied  (A) (A) (A) (A) (A) (A) (A) (A) (A) (A) (A) (A)
                 (A) (A) (A) (A) (A) (A) (A) (A) (A) (A) (A) (A)
                 (A) (A) (A) (A) (A) (A) (A) (A) (A) (A) (A) (A)
                 (A) (A) (A) (A) (A) (A) (A) (A) (A) (A) (A) (A)
                 (A) (A) (A) (A) (A) (A) (A) (A) (A) (A) (A) (A)
                 (A) (A) (A) (A) (A) (A) (A) (A) (A) (A) (A) (A)
                 (A) (A) (A) (A) (A) (A) (A) (A) (A) (A) (A) (A)
                 (A) (A) (A) (A) (A) (A) (A) (A) (A) (A) (A) (A)
                 (A) (A) (A) (A) (A) (A) (A) (A) (A) (A) (A) (A)
                 (A) (A) (A) (A) (A) (A) (A) (A) (A) (A) (A) (A)
                 (A) (A) (A) (A) (A) (A) (A) (A) (A) (A) (A) (A)
                 (A) (A) (A) (A) (A) (A) (A) (A) (A) (A) (A) (A)
                 (A) (A) (A) (A) (A) (A) (A) (A) (A) (A) (A) (A)
                 (A) (A) (A) (A) (A) (A) (A) (A) (A) (A) (A) (A)
                 (A) (A) (A) (A) (A) (A) (A) (A) (A) (A) (A) (A)
                 (A) (A) (A) (A) (A) (A) (A) (A) (A) (A) (A) (A)
                 (A) (A) (A) (A) (A) (A) (A) (A) (A) (A) (A) (A)
                 (A) (A) (A) (A) (A) (A) (A) (A) (A) (A) (A) (A)
                 (A) (A) (A) (A) (A) (A) (A) (A) (A) (A) (A) (A)
                 (A) (A) (A) (A) (A) (A) (A) (A) (A) (A) (A) (A)
                 (A) (A) (A) (A) (A) (A) (A) (A) (A) (A) (A) (A)
                 (A) (A) (A) (A) (A) (A) (A) (A) (A) (A) (A) (A)
                 (A) (A) (A) (A) (A) (A) (A) (A) (A) (A) (A) (A)
                 (A) (A) (A) (A) (A) (A) (A) (A) (A) (A) (A) (A)
                 (A) (A) (A) (A) (A) (A) (A) (A) (A) (A) (A) (A)
                 (A) (A) (A) (A) (A) (A) (A) (A) (A) (A) (A) (A)
                 (A) (A) (A) (A) (A) (A) (A) (A) (A) (A) (A)
       Virtual   (A) (A) (A) (A) (A) (A) (A) (A) (A) (A) (A) (A)
                 (A) (A) (A) (A) (A) (A) (A) (A) (A) (A) (A) (A)
                 (A) (A) (A) (A) (A) (A) (A) (A) (A) (A) (A) (A)
                 (A) (A) (A) (A) (A) (A) (A) (A) (A) (A) (A) (A)
                 (A) (A) (A) (A) (A) (A) (A) (A) (A) (A) (A) (A)
                 (A) (A) (A) (A) (A) (A) (A) (A) (A) (A) (A) (A)
                 (A) (A) (A) (A) (A) (A) (A) (A) (A) (A) (A) (A)
                 (A) (A) (A) (A) (A) (A) (A) (A) (A) (A) (A) (A)
                 (A) (A) (A) (A) (A) (A) (A) (A) (A) (A) (A) (A)
                 (A) (A) (A) (A) (A) (A) (A) (A) (A) (A) (A) (A)
                 (A) (A) (A) (A) (A) (A) (A) (A) (A) (A) (A) (A)
                 (A) (A) (A) (A) (A) (A) (A) (A) (A) (A) (A) (A)
                 (A) (A) (A) (A) (A) (A) (A) (A) (A) (A) (A) (A)
                 (A) (A) (A) (A) (A) (A) (A) (A) (A) (A) (A) (A)
                 (A) (A) (A) (A) (A) (A) (A) (A) (A) (A) (A) (A)
                 (A) (A) (A) (A) (A) (A) (A) (A) (A) (A) (A) (A)
                 (A) (A) (A) (A) (A) (A) (A) (A) (A) (A) (A) (A)
                 (A) (A) (A) (A) (A) (A) (A) (A) (A) (A) (A) (A)
                 (A) (A) (A) (A) (A) (A) (A) (A) (A) (A) (A) (A)
                 (A) (A) (A) (A) (A) (A) (A) (A) (A) (A) (A) (A)
                 (A) (A) (A) (A) (A) (A) (A) (A) (A) (A) (A) (A)
                 (A) (A) (A) (A) (A) (A) (A) (A) (A) (A) (A) (A)
                 (A) (A) (A) (A) (A) (A) (A) (A) (A) (A) (A) (A)
                 (A) (A) (A) (A) (A) (A) (A) (A) (A) (A) (A) (A)
                 (A) (A) (A) (A) (A) (A) (A) (A) (A) (A) (A) (A)
                 (A) (A) (A) (A) (A) (A) (A) (A) (A) (A) (A) (A)
                 (A) (A) (A) (A) (A) (A) (A) (A) (A) (A) (A) (A)
                 (A) (A) (A) (A) (A) (A) (A) (A) (A) (A) (A) (A)
                 (A) (A) (A) (A) (A) (A) (A) (A) (A) (A) (A) (A)
                 (A) (A) (A) (A) (A) (A) (A) (A) (A) (A) (A) (A)
                 (A) (A) (A) (A) (A) (A) (A) (A) (A) (A) (A) (A)
                 (A) (A) (A) (A) (A) (A) (A) (A) (A) (A) (A) (A)
                 (A) (A) (A) (A) (A) (A) (A) (A) (A) (A) (A) (A)
                 (A) (A) (A) (A) (A) (A) (A) (A) (A) (A) (A) (A)
                 (A) (A) (A) (A) (A) (A) (A) (A) (A) (A) (A) (A)
                 (A) (A) (A) (A) (A) (A) (A) (A) (A) (A) (A) (A)
                 (A) (A) (A) (A) (A) (A) (A) (A) (A) (A) (A) (A)
                 (A) (A) (A) (A) (A) (A) (A) (A) (A) (A) (A) (A)
                 (A) (A) (A) (A) (A) (A) (A) (A) (A) (A) (A) (A)
                 (A) (A) (A) (A) (A) (A) (A) (A) (A) (A) (A) (A)
                 (A) (A) (A) (A) (A) (A) (A) (A) (A) (A) (A) (A)
                 (A) (A) (A) (A) (A) (A) (A) (A) (A) (A) (A) (A)
                 (A) (A) (A) (A) (A) (A) (A) (A) (A) (A) (A) (A)
                 (A) (A) (A) (A) (A) (A) (A) (A) (A) (A) (A) (A)
                 (A) (A) (A) (A) (A) (A) (A) (A) (A) (A) (A) (A)
                 (A) (A) (A) (A) (A) (A) (A) (A) (A) (A) (A) (A)
                 (A) (A) (A) (A) (A) (A) (A) (A) (A) (A) (A) (A)
                 (A) (A) (A) (A) (A) (A) (A) (A) (A) (A) (A) (A)
                 (A) (A) (A) (A) (A) (A) (A) (A) (A) (A) (A) (A)
                 (A) (A) (A) (A) (A) (A) (A) (A) (A) (A) (A) (A)
                 (A) (A) (A) (A) (A) (A) (A) (A) (A) (A) (A) (A)
                 (A) (A) (A) (A) (A) (A) (A) (A) (A) (A) (A) (A)
                 (A) (A) (A) (A) (A) (A) (A) (A) (A) (A) (A) (A)
                 (A) (A) (A) (A) (A) (A) (A) (A) (A) (A) (A) (A)
                 (A) (A) (A) (A) (A) (A) (A) (A) (A) (A) (A) (A)
                 (A) (A) (A) (A) (A) (A) (A) (A) (A) (A) (A) (A)
                 (A) (A) (A) (A) (A) (A) (A) (A) (A) (A) (A) (A)
                 (A) (A) (A) (A) (A) (A) (A) (A) (A) (A) (A) (A)
                 (A) (A) (A) (A) (A) (A) (A) (A) (A) (A) (A) (A)
                 (A) (A) (A) (A) (A) (A) (A) (A) (A) (A) (A) (A)
                 (A) (A) (A) (A) (A) (A) (A) (A) (A) (A) (A) (A)
                 (A) (A) (A) (A) (A) (A) (A) (A) (A) (A) (A) (A)
                 (A) (A) (A) (A) (A) (A) (A) (A) (A) (A) (A) (A)
                 (A) (A) (A) (A) (A) (A) (A) (A) (A) (A) (A) (A)
                 (A) (A) (A) (A) (A) (A) (A) (A) (A) (A) (A) (A)
                 (A) (A) (A) (A) (A) (A) (A) (A) (A) (A) (A) (A)
                 (A) (A) (A) (A) (A) (A) (A) (A) (A) (A) (A) (A)
                 (A) (A) (A) (A) (A) (A) (A) (A) (A) (A) (A) (A)
                 (A) (A) (A) (A) (A) (A) (A) (A) (A) (A) (A) (A)
                 (A) (A) (A) (A) (A) (A) (A) (A) (A) (A) (A) (A)
                 (A) (A) (A) (A) (A) (A) (A) (A) (A) (A) (A) (A)
                 (A) (A) (A) (A) (A) (A) (A) (A) (A) (A) (A) (A)
                 (A) (A) (A) (A) (A) (A) (A) (A) (A) (A) (A) (A)
                 (A) (A) (A) (A) (A) (A) (A) (A) (A) (A) (A) (A)
                 (A) (A) (A) (A) (A) (A) (A) (A) (A) (A) (A) (A)
                 (A) (A) (A) (A) (A) (A) (A) (A) (A) (A) (A) (A)
                 (A) (A) (A) (A) (A) (A) (A) (A) (A) (A) (A) (A)
                 (A) (A) (A) (A) (A) (A) (A) (A) (A) (A) (A) (A)
                 (A) (A) (A) (A) (A) (A) (A) (A) (A) (A) (A) (A)
                 (A) (A) (A) (A) (A) (A) (A) (A) (A) (A) (A) (A)
                 (A) (A) (A) (A) (A) (A) (A) (A) (A) (A) (A) (A)
                 (A) (A) (A) (A) (A) (A) (A) (A) (A) (A) (A) (A)
                 (A) (A) (A) (A) (A) (A) (A) (A) (A) (A) (A) (A)
                 (A) (A) (A) (A) (A) (A) (A) (A) (A) (A) (A) (A)
                 (A) (A) (A) (A) (A) (A) (A) (A) (A) (A) (A) (A)
                 (A) (A) (A) (A) (A) (A) (A) (A) (A) (A) (A) (A)
                 (A) (A) (A) (A) (A) (A) (A) (A) (A) (A) (A) (A)
                 (A) (A) (A) (A) (A) (A) (A) (A) (A) (A) (A) (A)
                 (A) (A) (A) (A) (A) (A) (A) (A) (A) (A) (A) (A)
                 (A) (A) (A) (A) (A) (A) (A) (A) (A) (A) (A) (A)
                 (A) (A) (A) (A) (A) (A) (A) (A) (A) (A) (A) (A)
                 (A) (A) (A) (A) (A) (A) (A) (A) (A) (A) (A) (A)
                 (A) (A) (A) (A) (A) (A) (A) (A) (A) (A) (A) (A)
                 (A) (A) (A) (A) (A) (A) (A) (A) (A) (A) (A) (A)
                 (A) (A) (A) (A) (A) (A) (A) (A) (A) (A) (A) (A)
                 (A) (A) (A) (A) (A) (A) (A) (A) (A) (A) (A) (A)
                 (A) (A) (A) (A) (A) (A) (A) (A) (A) (A) (A) (A)
                 (A) (A) (A) (A) (A) (A) (A) (A) (A) (A) (A) (A)
                 (A) (A) (A) (A) (A) (A) (A) (A) (A) (A) (A) (A)
                 (A) (A) (A) (A) (A) (A) (A) (A) (A) (A) (A) (A)
                 (A) (A) (A) (A) (A) (A) (A) (A) (A) (A) (A) (A)
                 (A) (A) (A) (A) (A) (A) (A) (A) (A) (A) (A) (A)
                 (A) (A) (A) (A) (A) (A) (A) (A) (A) (A) (A) (A)
                 (A) (A) (A) (A) (A) (A) (A) (A) (A) (A) (A) (A)
                 (A) (A) (A) (A) (A) (A) (A) (A) (A) (A) (A) (A)
                 (A) (A) (A) (A) (A) (A) (A) (A) (A) (A) (A) (A)
                 (A) (A) (A) (A) (A) (A) (A) (A) (A) (A) (A) (A)
                 (A) (A) (A) (A) (A) (A) (A) (A) (A) (A) (A) (A)
                 (A) (A) (A) (A) (A) (A) (A) (A) (A) (A) (A) (A)
                 (A) (A) (A) (A) (A) (A) (A) (A) (A) (A) (A)
 The electronic state is 1-A.
 Alpha  occ. eigenvalues --  -19.17038 -19.16961 -19.16792 -19.16738 -19.16517
 Alpha  occ. eigenvalues --  -19.15908 -19.15821 -19.15334 -14.35437 -14.34520
 Alpha  occ. eigenvalues --  -14.34284 -14.34033 -10.24439 -10.24319 -10.24319
 Alpha  occ. eigenvalues --  -10.24290 -10.24282 -10.24195 -10.23922 -10.23767
 Alpha  occ. eigenvalues --  -10.23697 -10.23536 -10.23502 -10.23357 -10.23298
 Alpha  occ. eigenvalues --  -10.22998 -10.22915 -10.22821 -10.22507 -10.22304
 Alpha  occ. eigenvalues --  -10.22172 -10.21866 -10.21727 -10.21596 -10.21510
 Alpha  occ. eigenvalues --  -10.21509 -10.21494 -10.21486 -10.21477 -10.21010
 Alpha  occ. eigenvalues --  -10.20431 -10.18915 -10.18905 -10.18817 -10.18810
 Alpha  occ. eigenvalues --  -10.18802 -10.18701 -10.18654 -10.18650 -10.18625
 Alpha  occ. eigenvalues --  -10.18556 -10.18551 -10.18547 -10.18512 -10.18503
 Alpha  occ. eigenvalues --  -10.18498 -10.18490 -10.18470 -10.18407 -10.18371
 Alpha  occ. eigenvalues --  -10.18319 -10.18299 -10.18294 -10.18287 -10.18256
 Alpha  occ. eigenvalues --  -10.18223 -10.18185 -10.18164 -10.18139 -10.18127
 Alpha  occ. eigenvalues --  -10.18077 -10.17958 -10.17925 -10.17904 -10.17897
 Alpha  occ. eigenvalues --  -10.17894 -10.17868 -10.17868 -10.17832 -10.17781
 Alpha  occ. eigenvalues --  -10.17745 -10.17621 -10.17600 -10.17597 -10.17549
 Alpha  occ. eigenvalues --  -10.17533 -10.17506 -10.17490 -10.17444 -10.17254
 Alpha  occ. eigenvalues --  -10.17235 -10.17147 -10.16991  -1.06596  -1.06571
 Alpha  occ. eigenvalues --   -1.06554  -1.06441  -1.06337  -1.05497  -1.05400
 Alpha  occ. eigenvalues --   -1.04967  -0.95970  -0.95345  -0.95028  -0.94963
 Alpha  occ. eigenvalues --   -0.89279  -0.86378  -0.85403  -0.85034  -0.84940
 Alpha  occ. eigenvalues --   -0.84683  -0.84672  -0.84287  -0.83797  -0.83480
 Alpha  occ. eigenvalues --   -0.82584  -0.82186  -0.79759  -0.77633  -0.76411
 Alpha  occ. eigenvalues --   -0.76151  -0.76028  -0.75714  -0.75542  -0.75119
 Alpha  occ. eigenvalues --   -0.74950  -0.74792  -0.74712  -0.74670  -0.74524
 Alpha  occ. eigenvalues --   -0.74474  -0.74189  -0.73897  -0.73820  -0.73611
 Alpha  occ. eigenvalues --   -0.73291  -0.73195  -0.72480  -0.72340  -0.70579
 Alpha  occ. eigenvalues --   -0.70532  -0.69511  -0.69334  -0.69198  -0.69079
 Alpha  occ. eigenvalues --   -0.68473  -0.68149  -0.67624  -0.67150  -0.66870
 Alpha  occ. eigenvalues --   -0.63725  -0.62757  -0.62358  -0.61969  -0.61865
 Alpha  occ. eigenvalues --   -0.61753  -0.61246  -0.60552  -0.60419  -0.59989
 Alpha  occ. eigenvalues --   -0.59712  -0.59511  -0.59251  -0.59039  -0.58944
 Alpha  occ. eigenvalues --   -0.58868  -0.58388  -0.57934  -0.57769  -0.57565
 Alpha  occ. eigenvalues --   -0.56496  -0.56129  -0.55805  -0.55295  -0.53755
 Alpha  occ. eigenvalues --   -0.53609  -0.53377  -0.53063  -0.52988  -0.52928
 Alpha  occ. eigenvalues --   -0.52527  -0.52282  -0.51788  -0.51263  -0.51206
 Alpha  occ. eigenvalues --   -0.50549  -0.50362  -0.50226  -0.49957  -0.49655
 Alpha  occ. eigenvalues --   -0.49004  -0.48861  -0.48668  -0.48450  -0.48161
 Alpha  occ. eigenvalues --   -0.48124  -0.47454  -0.47090  -0.46948  -0.46896
 Alpha  occ. eigenvalues --   -0.46861  -0.46606  -0.46428  -0.46375  -0.46262
 Alpha  occ. eigenvalues --   -0.46191  -0.46121  -0.45964  -0.45830  -0.45607
 Alpha  occ. eigenvalues --   -0.45435  -0.45233  -0.45019  -0.44774  -0.44688
 Alpha  occ. eigenvalues --   -0.44347  -0.43913  -0.43755  -0.43637  -0.43516
 Alpha  occ. eigenvalues --   -0.43468  -0.43221  -0.43173  -0.43011  -0.42910
 Alpha  occ. eigenvalues --   -0.42820  -0.42624  -0.42523  -0.42442  -0.42285
 Alpha  occ. eigenvalues --   -0.42165  -0.41884  -0.41649  -0.41571  -0.41451
 Alpha  occ. eigenvalues --   -0.41386  -0.41294  -0.41199  -0.41030  -0.40860
 Alpha  occ. eigenvalues --   -0.40577  -0.40320  -0.40035  -0.39759  -0.39195
 Alpha  occ. eigenvalues --   -0.39086  -0.38839  -0.38483  -0.38241  -0.38169
 Alpha  occ. eigenvalues --   -0.37961  -0.37716  -0.37605  -0.37560  -0.37372
 Alpha  occ. eigenvalues --   -0.37336  -0.37262  -0.37212  -0.37138  -0.36951
 Alpha  occ. eigenvalues --   -0.36638  -0.36550  -0.36286  -0.36115  -0.35917
 Alpha  occ. eigenvalues --   -0.35886  -0.35818  -0.35685  -0.35610  -0.35486
 Alpha  occ. eigenvalues --   -0.35379  -0.35029  -0.34802  -0.34674  -0.34509
 Alpha  occ. eigenvalues --   -0.33922  -0.33707  -0.33303  -0.33145  -0.33025
 Alpha  occ. eigenvalues --   -0.32767  -0.32716  -0.32617  -0.32492  -0.32402
 Alpha  occ. eigenvalues --   -0.32248  -0.32200  -0.32067  -0.31805  -0.31770
 Alpha  occ. eigenvalues --   -0.31676  -0.31633  -0.31463  -0.31343  -0.29586
 Alpha  occ. eigenvalues --   -0.29237  -0.28278  -0.27874  -0.27186  -0.26480
 Alpha  occ. eigenvalues --   -0.26012  -0.25862  -0.25626  -0.25091  -0.24873
 Alpha  occ. eigenvalues --   -0.24657  -0.24571  -0.24383  -0.24187  -0.23994
 Alpha  occ. eigenvalues --   -0.23942  -0.23704  -0.23447  -0.23069  -0.22127
 Alpha  occ. eigenvalues --   -0.21984  -0.21852  -0.21773  -0.21033  -0.18077
 Alpha  occ. eigenvalues --   -0.17751  -0.16800  -0.16033
 Alpha virt. eigenvalues --   -0.03202  -0.02643  -0.02129  -0.01496  -0.01356
 Alpha virt. eigenvalues --   -0.01112  -0.00825  -0.00460  -0.00438  -0.00259
 Alpha virt. eigenvalues --   -0.00042   0.00295   0.00480   0.00917   0.01109
 Alpha virt. eigenvalues --    0.01125   0.01361   0.01673   0.01965   0.02366
 Alpha virt. eigenvalues --    0.03204   0.03397   0.04897   0.05098   0.05527
 Alpha virt. eigenvalues --    0.05938   0.06227   0.06429   0.06659   0.06813
 Alpha virt. eigenvalues --    0.06941   0.07126   0.07294   0.07461   0.07730
 Alpha virt. eigenvalues --    0.07755   0.08023   0.08246   0.08651   0.08775
 Alpha virt. eigenvalues --    0.09194   0.09283   0.09439   0.09730   0.09974
 Alpha virt. eigenvalues --    0.10320   0.10439   0.10643   0.10888   0.11016
 Alpha virt. eigenvalues --    0.11288   0.11499   0.11788   0.11886   0.11949
 Alpha virt. eigenvalues --    0.12025   0.12119   0.12213   0.12278   0.12475
 Alpha virt. eigenvalues --    0.12489   0.12538   0.12692   0.12762   0.12885
 Alpha virt. eigenvalues --    0.12945   0.13114   0.13134   0.13210   0.13238
 Alpha virt. eigenvalues --    0.13377   0.13459   0.13571   0.13735   0.13821
 Alpha virt. eigenvalues --    0.13857   0.13943   0.13987   0.14049   0.14113
 Alpha virt. eigenvalues --    0.14260   0.14511   0.14770   0.14926   0.14948
 Alpha virt. eigenvalues --    0.15062   0.15166   0.15350   0.15456   0.15788
 Alpha virt. eigenvalues --    0.15905   0.16092   0.16216   0.16302   0.16516
 Alpha virt. eigenvalues --    0.16640   0.16780   0.16997   0.17092   0.17343
 Alpha virt. eigenvalues --    0.17499   0.17606   0.17723   0.17979   0.18246
 Alpha virt. eigenvalues --    0.18856   0.19085   0.19123   0.19219   0.19494
 Alpha virt. eigenvalues --    0.19899   0.20187   0.20468   0.20784   0.20899
 Alpha virt. eigenvalues --    0.21448   0.21722   0.22156   0.23321   0.23537
 Alpha virt. eigenvalues --    0.23886   0.24146   0.24344   0.24469   0.24478
 Alpha virt. eigenvalues --    0.24780   0.24877   0.25157   0.25370   0.25587
 Alpha virt. eigenvalues --    0.25603   0.26030   0.26211   0.26469   0.26756
 Alpha virt. eigenvalues --    0.27011   0.27198   0.27601   0.27724   0.28145
 Alpha virt. eigenvalues --    0.28321   0.28589   0.28703   0.29074   0.29555
 Alpha virt. eigenvalues --    0.29580   0.30047   0.30208   0.30641   0.30830
 Alpha virt. eigenvalues --    0.30851   0.31143   0.31317   0.31353   0.31614
 Alpha virt. eigenvalues --    0.32064   0.32454   0.32586   0.32860   0.32976
 Alpha virt. eigenvalues --    0.33043   0.33245   0.33459   0.33588   0.33671
 Alpha virt. eigenvalues --    0.33991   0.34238   0.34520   0.35238   0.35496
 Alpha virt. eigenvalues --    0.35746   0.35911   0.36342   0.36591   0.36970
 Alpha virt. eigenvalues --    0.37396   0.37474   0.37570   0.37971   0.38134
 Alpha virt. eigenvalues --    0.38781   0.39146   0.39235   0.40007   0.40244
[...]
 Alpha virt. eigenvalues --    1.78837   1.79000   1.79281   1.79510   1.79713
 Alpha virt. eigenvalues --    1.79749   1.79928   1.80069   1.80286   1.80388
 Alpha virt. eigenvalues --    1.80732   1.80797   1.80903   1.81062   1.81469
 Alpha virt. eigenvalues --    1.81555   1.81660   1.81833   1.82084   1.82115
 Alpha virt. eigenvalues --    1.82416   1.82568   1.82667   1.82767   1.82826
 Alpha virt. eigenvalues --    1.83190   1.83473   1.83665   1.83838   1.84094
 Alpha virt. eigenvalues --    1.84322   1.84571   1.84588   1.84632   1.84807
 Alpha virt. eigenvalues --    1.85119   1.85369   1.85638   1.85859   1.85953
 Alpha virt. eigenvalues --    1.86059   1.86223   1.86375   1.86579   1.86750
 Alpha virt. eigenvalues --    1.86958   1.87025   1.87233   1.87382   1.87472
 Alpha virt. eigenvalues --    1.87496   1.87691   1.87877   1.88158   1.88393
 Alpha virt. eigenvalues --    1.88832   1.88969   1.89117   1.89430   1.89569
 Alpha virt. eigenvalues --    1.89831   1.90068   1.90100   1.90240   1.90520
 Alpha virt. eigenvalues --    1.90859   1.90984   1.91254   1.91463   1.91585
 Alpha virt. eigenvalues --    1.92290   1.92370   1.92464   1.92812   1.93307
 Alpha virt. eigenvalues --    1.93550   1.94015   1.94249   1.94842   1.95016
 Alpha virt. eigenvalues --    1.95139   1.95453   1.95556   1.96049   1.96149
 Alpha virt. eigenvalues --    1.96693   1.97065   1.97355   1.97674   1.97936
 Alpha virt. eigenvalues --    1.98162   1.98357   1.98672   1.98803   1.98886
 Alpha virt. eigenvalues --    1.99167   1.99330   1.99403   1.99486   1.99628
 Alpha virt. eigenvalues --    1.99747   2.00128   2.00579   2.00803   2.00958
 Alpha virt. eigenvalues --    2.01315   2.01461   2.01707   2.02069   2.02481
 Alpha virt. eigenvalues --    2.02574   2.02669   2.03250   2.03352   2.03611
 Alpha virt. eigenvalues --    2.03755   2.03919   2.04295   2.04470   2.04759
 Alpha virt. eigenvalues --    2.04995   2.05038   2.05110   2.05609   2.05750
 Alpha virt. eigenvalues --    2.05986   2.06267   2.06389   2.06489   2.06620
 Alpha virt. eigenvalues --    2.06810   2.07005   2.07128   2.07142   2.07342
 Alpha virt. eigenvalues --    2.07435   2.07634   2.07758   2.08231   2.08700
 Alpha virt. eigenvalues --    2.08936   2.09149   2.09616   2.09923   2.10079
 Alpha virt. eigenvalues --    2.10366   2.10827   2.11030   2.11245   2.12343
 Alpha virt. eigenvalues --    2.12480   2.12904   2.13288   2.13460   2.13927
 Alpha virt. eigenvalues --    2.14195   2.14391   2.14876   2.14998   2.15195
 Alpha virt. eigenvalues --    2.15368   2.16274   2.16782   2.16919   2.17120
 Alpha virt. eigenvalues --    2.17293   2.17782   2.17953   2.18082   2.18157
 Alpha virt. eigenvalues --    2.18247   2.18535   2.18843   2.19038   2.19333
 Alpha virt. eigenvalues --    2.19727   2.19893   2.20150   2.20605   2.20930
 Alpha virt. eigenvalues --    2.21306   2.21609   2.21674   2.21996   2.22412
 Alpha virt. eigenvalues --    2.22923   2.23172   2.23609   2.23818   2.24339
 Alpha virt. eigenvalues --    2.24425   2.24846   2.24935   2.25032   2.25688
 Alpha virt. eigenvalues --    2.25968   2.26484   2.26664   2.26823   2.27102
 Alpha virt. eigenvalues --    2.27322   2.27719   2.27884   2.28126   2.28326
 Alpha virt. eigenvalues --    2.28957   2.29684   2.30145   2.30461   2.30797
 Alpha virt. eigenvalues --    2.31023   2.31766   2.32081   2.32189   2.32997
 Alpha virt. eigenvalues --    2.33708   2.33762   2.34763   2.35645   2.35777
 Alpha virt. eigenvalues --    2.36476   2.37124   2.38646   2.38925   2.39131
 Alpha virt. eigenvalues --    2.39145   2.39412   2.39805   2.39850   2.40009
 Alpha virt. eigenvalues --    2.40116   2.40222   2.40383   2.40515   2.40689
 Alpha virt. eigenvalues --    2.40932   2.41639   2.41830   2.42357   2.42468
 Alpha virt. eigenvalues --    2.42610   2.43424   2.43730   2.43871   2.44051
 Alpha virt. eigenvalues --    2.44408   2.44514   2.44695   2.44766   2.44881
 Alpha virt. eigenvalues --    2.45238   2.45501   2.45964   2.46284   2.46531
 Alpha virt. eigenvalues --    2.46885   2.47693   2.48048   2.48447   2.48493
 Alpha virt. eigenvalues --    2.49338   2.49492   2.49617   2.49761   2.49791
 Alpha virt. eigenvalues --    2.50165   2.50244   2.50536   2.50821   2.51434
 Alpha virt. eigenvalues --    2.52159   2.52542   2.53246   2.53859   2.54061
 Alpha virt. eigenvalues --    2.54431   2.54775   2.55265   2.55467   2.55809
 Alpha virt. eigenvalues --    2.56863   2.57616   2.58118   2.58349   2.58951
 Alpha virt. eigenvalues --    2.59149   2.59280   2.59720   2.60064   2.60903
 Alpha virt. eigenvalues --    2.62277   2.62784   2.63974   2.64337   2.64503
 Alpha virt. eigenvalues --    2.64888   2.65344   2.65747   2.66020   2.66575
 Alpha virt. eigenvalues --    2.66849   2.66985   2.67585   2.67925   2.68332
 Alpha virt. eigenvalues --    2.68668   2.69159   2.69351   2.70186   2.70590
 Alpha virt. eigenvalues --    2.71185   2.71862   2.73431   2.73830   2.73887
 Alpha virt. eigenvalues --    2.74304   2.74906   2.75838   2.76289   2.77081
 Alpha virt. eigenvalues --    2.77346   2.78610   2.79149   2.79663   2.80115
 Alpha virt. eigenvalues --    2.80260   2.80469   2.80799   2.81705   2.81762
 Alpha virt. eigenvalues --    2.82554   2.82762   2.83703   2.83801   2.84745
 Alpha virt. eigenvalues --    2.86291   2.86672   2.87227   2.87706   2.87879
 Alpha virt. eigenvalues --    2.88848   2.88907   2.89060   2.89228   2.89460
 Alpha virt. eigenvalues --    2.90923   2.91723   2.92156   2.92475   2.92626
 Alpha virt. eigenvalues --    2.92992   2.93551   2.93990   2.95619   2.96469
 Alpha virt. eigenvalues --    2.96779   2.98502   2.98877   3.00962   3.01363
 Alpha virt. eigenvalues --    3.02430   3.02658   3.03115   3.03591   3.03652
 Alpha virt. eigenvalues --    3.03782   3.04057   3.04273   3.04421   3.04913
 Alpha virt. eigenvalues --    3.05166   3.05407   3.05957   3.06677   3.07470
 Alpha virt. eigenvalues --    3.08327   3.08703   3.09053   3.11677   3.14249
 Alpha virt. eigenvalues --    3.20462   3.25994   3.26327   3.26676   3.27296
 Alpha virt. eigenvalues --    3.30714   3.31155   3.31307   3.31551   3.34752
 Alpha virt. eigenvalues --    3.39687   3.39988   3.40472   3.40794   3.41179
 Alpha virt. eigenvalues --    3.41622   3.41772   3.41996   3.42932   3.55779
 Alpha virt. eigenvalues --    3.56153   3.64467   3.64885   3.64997   3.65385
 Alpha virt. eigenvalues --    3.65578   3.65986   3.66098   3.66547
          Condensed to atoms (all electrons):
 Mulliken atomic charges:
              1
     1  C   -0.301869
     2  C    0.104360
     3  C    0.042800
     4  C    0.046965
     5  C    0.096139
     6  C    0.095924
     7  C    0.046225
     8  C    0.042811
     9  C    0.095569
    10  C    0.035337
    11  C    0.096599
    12  C    0.059210
    13  C   -0.016247
    14  C   -0.012980
    15  C    0.106908
    16  C    0.055654
    17  C    0.046281
    18  C    0.032832
    19  C    0.086633
    20  C    0.070802
    21  C   -0.008787
    22  C   -0.016556
    23  C    0.058084
    24  C    0.117682
    25  C    0.022150
    26  N   -0.274597
    27  N   -0.290031
    28  N   -0.282720
    29  N   -0.276570
    30  C   -0.018893
    31  C    0.042354
    32  C    0.072483
    33  C    0.049081
    34  C    0.050145
    35  C    0.017629
    36  C    0.092891
    37  C    0.004921
    38  C    0.028182
    39  C   -0.008018
    40  C    0.113824
    41  C    0.039359
    42  C    0.020935
    43  C    0.049205
    44  C    0.001181
    45  C    0.115686
    46  C    0.055940
    47  C    0.038355
    48  C    0.050287
    49  C    0.049078
    50  C    0.041751
    51  C   -0.009728
    52  C    0.131349
    53  C    0.079245
    54  C    0.048610
    55  C    0.044845
    56  C   -0.024145
    57  C    0.134622
    58  C    0.067071
    59  C    0.061320
    60  C    0.049140
    61  C    0.054699
    62  C    0.038240
    63  C    0.022178
    64  C   -0.007526
    65  C    0.118830
    66  C    0.048237
    67  C    0.050748
    68  C    0.027778
    69  C    0.049400
    70  C    0.116274
    71  C   -0.006384
    72  C    0.035152
    73  C    0.142258
    74  C   -0.012038
    75  C    0.044498
    76  C    0.048680
    77  C    0.073380
    78  H   -0.037718
    79  H   -0.042470
    80  H   -0.039767
    81  H   -0.055845
    82  H   -0.056328
    83  H   -0.047228
    84  H   -0.059245
    85  H   -0.038267
    86  H   -0.057645
    87  H   -0.040926
    88  H   -0.055880
    89  H   -0.048432
    90  O   -0.285428
    91  C    0.132841
    92  O   -0.282470
    93  C    0.131168
    94  O   -0.286607
    95  O   -0.294142
    96  C    0.130334
    97  C    0.133282
    98  H   -0.033447
    99  H   -0.016451
   100  H   -0.036009
   101  H   -0.037160
   102  H   -0.039872
   103  H   -0.031617
   104  H   -0.031498
   105  H   -0.026525
   106  H   -0.033293
   107  H   -0.039443
   108  H   -0.034025
   109  H   -0.019883
   110  H   -0.034017
   111  H   -0.017972
   112  H   -0.030901
   113  H   -0.033246
   114  H    0.025346
   115  H    0.023948
   116  H    0.033027
   117  H    0.026490
   118  H    0.024876
   119  H    0.030263
   120  H    0.029274
   121  H    0.020730
   122  H    0.021941
   123  H    0.022241
   124  H    0.023167
   125  H    0.028453
   126  H   -0.036401
   127  H   -0.031153
   128  H   -0.034237
   129  H   -0.030164
   130  O   -0.302374
   131  O   -0.271670
   132  H   -0.034460
   133  H   -0.037768
   134  H   -0.038170
   135  H   -0.041458
   136  H   -0.037597
   137  H   -0.043908
   138  H   -0.035526
   139  H   -0.021417
   140  O   -0.273457
   141  O   -0.273793
   142  H   -0.035993
   143  H   -0.039329
   144  H   -0.039083
   145  H   -0.036927
   146  C    0.118903
   147  C    0.120118
   148  C    0.127732
   149  C    0.119906
   150  H    0.032061
   151  H    0.021674
   152  H    0.043231
   153  H    0.026202
   154  H    0.024265
   155  H    0.050014
   156  H    0.041919
   157  H    0.034773
   158  H    0.011723
   159  H    0.047610
   160  H    0.022688
   161  H    0.026728
 Sum of Mulliken atomic charges =   0.00000
 Mulliken charges with hydrogens summed into heavy atoms:
              1
     1  C   -0.301869
     2  C    0.104360
     3  C    0.042800
     4  C    0.046965
     5  C    0.096139
     6  C    0.095924
     7  C    0.046225
     8  C    0.042811
     9  C    0.095569
    10  C   -0.013095
    11  C    0.096599
    12  C    0.018283
    13  C   -0.073892
    14  C   -0.069308
    15  C    0.059680
    16  C    0.055654
    17  C   -0.009599
    18  C   -0.009639
    19  C    0.086633
    20  C    0.031035
    21  C   -0.064632
    22  C   -0.075801
    23  C    0.019817
    24  C    0.117682
    25  C   -0.015569
    26  N   -0.274597
    27  N   -0.290031
    28  N   -0.282720
    29  N   -0.276570
    30  C   -0.018893
    31  C    0.042354
    32  C    0.072483
    33  C    0.049081
    34  C    0.050145
    35  C    0.017629
    36  C    0.092891
    37  C    0.004921
    38  C   -0.003435
    39  C   -0.047890
    40  C    0.113824
    41  C    0.005912
    42  C    0.004484
    43  C    0.013196
    44  C   -0.035979
    45  C    0.115686
    46  C    0.024441
    47  C    0.011830
    48  C    0.013360
    49  C    0.009995
    50  C    0.002422
    51  C   -0.045722
    52  C    0.131349
    53  C    0.035337
    54  C    0.011013
    55  C    0.009319
    56  C   -0.045562
    57  C    0.134622
    58  C    0.067071
    59  C    0.031157
    60  C    0.014903
    61  C    0.018299
    62  C    0.007088
    63  C    0.004206
    64  C   -0.041543
    65  C    0.118830
    66  C    0.017336
    67  C    0.017502
    68  C    0.007895
    69  C    0.015375
    70  C    0.116274
    71  C   -0.045828
    72  C    0.001859
    73  C    0.142258
    74  C   -0.046498
    75  C    0.006730
    76  C    0.010510
    77  C    0.031922
    90  O   -0.285428
    91  C    0.206703
    92  O   -0.282470
    93  C    0.213489
    94  O   -0.286607
    95  O   -0.294142
    96  C    0.211963
    97  C    0.205227
   130  O   -0.302374
   131  O   -0.271670
   140  O   -0.273457
   141  O   -0.273793
   146  C    0.215869
   147  C    0.217145
   148  C    0.216147
   149  C    0.220388
 Sum of Mulliken charges with hydrogens summed into heavy atoms =   0.00000
 Electronic spatial extent (au):  <R**2>=          97322.6431
 Charge=              0.0000 electrons
 Dipole moment (field-independent basis, Debye):
    X=             -1.7870    Y=              2.6760    Z=             -2.3565  Tot=              3.9884
 Quadrupole moment (field-independent basis, Debye-Ang):
   XX=           -471.2852   YY=           -494.5570   ZZ=           -506.8485
   XY=             -3.4739   XZ=              8.8908   YZ=            -12.3465
 Traceless Quadrupole moment (field-independent basis, Debye-Ang):
   XX=             19.6117   YY=             -3.6601   ZZ=            -15.9516
   XY=             -3.4739   XZ=              8.8908   YZ=            -12.3465
 Octapole moment (field-independent basis, Debye-Ang**2):
  XXX=             43.5071  YYY=            168.8278  ZZZ=            -99.9052  XYY=             58.6949
  XXY=            123.0051  XXZ=            -86.4659  XZZ=            -12.8442  YZZ=             14.4709
  YYZ=           -174.2360  XYZ=             93.9892
 Hexadecapole moment (field-independent basis, Debye-Ang**3):
 XXXX=         -57434.7159 YYYY=         -49052.8284 ZZZZ=         -16599.4411 XXXY=            505.3330
 XXXZ=            203.7172 YYYX=           -907.0036 YYYZ=           -628.2753 ZZZX=            150.2741
 ZZZY=           -121.0488 XXYY=         -18211.1894 XXZZ=         -12307.1400 YYZZ=         -10503.5285
 XXYZ=           -431.8478 YYXZ=           -233.1081 ZZXY=           -316.0680
 N-N= 1.697283647311D+04 E-N=-4.313031841518D+04  KE= 3.922768285060D+03
 Leave Link  601 at Tue Feb  3 01:19:20 2015, MaxMem= 2147483648 cpu:      78.3
 (Enter /opt/g09/l9999.exe)
 1\1\GINC-CHPC-SCANDIUM\SP\RB3LYP\CC-pVDZ\C81H68N4O8\JARVIST\03-Feb-201
 5\0\\#p sp B3LYP/cc-pVDZ\\Auto Spiro; and yes I said yes I will Yes.\\
 0,1\C,0,-0.062812,-0.045654,0.293071\C,0,-0.871139,-0.911931,-0.680626
 \C,0,-0.557952,-0.584575,-2.012705\C,0,0.465023,0.46528,-2.011271\C,0,
 0.746724,0.819596,-0.677833\C,0,-0.949237,0.726992,1.277296\C,0,-0.650
 342,0.358602,2.605755\C,0,0.453962,-0.602872,2.590736\C,0,0.813509,-0.
 862366,1.25316\C,0,-1.957273,1.63184,0.992963\C,0,-2.69611,2.193375,2.
 051195\C,0,-2.407169,1.819806,3.37382\C,0,-1.392483,0.904361,3.654489\
 C,0,1.150577,1.088079,-3.058743\C,0,2.10701,2.056551,-2.764696\C,0,2.3
 87585,2.412185,-1.434762\C,0,1.693543,1.791961,-0.383528\C,0,-1.819085
 ,-1.878995,-0.380956\C,0,-2.478064,-2.539606,-1.431\C,0,-2.169161,-2.2
 09945,-2.763643\C,0,-1.216557,-1.237925,-3.058086\C,0,1.15213,-1.23384
 8,3.621674\C,0,2.184094,-2.117019,3.311355\C,0,2.54349,-2.376439,1.975
 058\C,0,1.843827,-1.7314,0.936327\N,0,-3.725996,3.133028,1.770568\N,0,
 3.400318,3.380876,-1.15396\N,0,-3.465152,-3.531863,-1.158792\N,0,3.606
 48,-3.266812,1.690515\C,0,4.732602,-3.300942,2.561979\C,0,-3.27363,-4.
 421303,-0.066004\C,0,3.55389,-4.169387,0.594835\C,0,-4.751798,-3.43492
 2,-1.759574\C,0,-3.446883,4.239082,0.923033\C,0,-4.927578,3.115322,2.5
 26683\C,0,4.747216,3.129569,-1.500709\C,0,3.051912,4.555738,-0.429788\
 C,0,5.652512,4.182146,-1.699954\C,0,6.988984,3.939534,-2.025002\C,0,7.
 448965,2.628449,-2.178829\C,0,6.550783,1.56986,-1.993149\C,0,5.226284,
 1.812087,-1.651153\C,0,-4.412869,4.724633,0.033738\C,0,-4.142794,5.808
 25,-0.805744\C,0,-2.88181,6.412701,-0.778767\C,0,-1.911784,5.937706,0.
 113036\C,0,-2.192052,4.872448,0.955756\C,0,-5.36218,4.24841,3.221989\C
 ,0,-6.552821,4.241293,3.950547\C,0,-7.315419,3.077869,4.007656\C,0,-6.
 901712,1.930551,3.323631\C,0,-5.724342,1.942228,2.569882\C,0,3.574065,
 4.796075,0.844251\C,0,3.260227,5.957814,1.551113\C,0,2.401816,6.89375,
 0.978442\C,0,1.86743,6.679625,-0.295335\C,0,2.190103,5.51903,-1.009974
 \C,0,-2.1132,-5.224172,0.01453\C,0,-1.914148,-6.062347,1.11233\C,0,-2.
 86822,-6.147767,2.126029\C,0,-4.034373,-5.385575,2.038727\C,0,-4.22652
 5,-4.525764,0.959259\C,0,-5.329554,-2.196014,-2.061777\C,0,-6.585074,-
 2.113015,-2.670928\C,0,-7.29867,-3.278238,-2.966866\C,0,-6.733176,-4.5
 23425,-2.654143\C,0,-5.477417,-4.600522,-2.070128\C,0,2.34236,-4.76404
 1,0.196133\C,0,2.305629,-5.657884,-0.864024\C,0,3.478458,-6.004888,-1.
 547892\C,0,4.690339,-5.428065,-1.156656\C,0,4.718678,-4.510721,-0.1033
 42\C,0,5.554835,-2.155778,2.705493\C,0,6.651117,-2.196007,3.574234\C,0
 ,6.952671,-3.368507,4.273072\C,0,6.165004,-4.50666,4.116713\C,0,5.0566
 85,-4.461372,3.269015\H,0,2.124793,-1.912242,-0.096137\H,0,-2.062322,-
 2.12067,0.649138\H,0,-2.687569,-2.723849,-3.567331\H,0,-0.989215,-1.00
 1515,-4.094555\H,0,0.943378,0.825919,-4.093304\H,0,2.648262,2.557722,-
 3.560629\H,0,0.893577,-1.053189,4.662258\H,0,2.721357,-2.620894,4.1083
 16\H,0,-1.181461,0.633069,4.685994\H,0,-2.981588,2.259375,4.183558\H,0
 ,1.923053,2.058895,0.644061\H,0,-2.19535,1.904905,-0.030483\O,0,3.3313
 74,-6.90573,-2.571499\C,0,4.489093,-7.281364,-3.294239\O,0,-8.534679,-
 3.314281,-3.552823\C,0,-9.147613,-2.081707,-3.888772\O,0,8.735962,2.27
 7473,-2.501205\O,0,-2.493815,7.459454,-1.5792\C,0,-3.44441,7.987115,-2
 .48825\C,0,9.671334,3.318351,-2.711214\H,0,6.913309,0.553056,-2.111295
 \H,0,4.553095,0.974548,-1.502828\H,0,-5.387424,4.247756,-0.004954\H,0,
 -4.915308,6.152454,-1.484301\H,0,7.652693,4.785312,-2.16705\H,0,5.3114
 59,5.207026,-1.598887\H,0,-0.941312,6.421577,0.144835\H,0,-1.431298,4.
 518807,1.643702\H,0,5.663484,-4.059214,0.181671\H,0,5.616547,-5.667728
 ,-1.66705\H,0,1.364001,-6.104321,-1.163667\H,0,1.420049,-4.518636,0.71
 1299\H,0,-6.994066,-1.134045,-2.894406\H,0,-4.790991,-1.283109,-1.8294
 11\H,0,-7.292911,-5.422555,-2.89288\H,0,-5.049206,-5.571906,-1.842924\
 H,0,-8.546652,-1.51397,-4.61219\H,0,-9.319792,-1.459041,-3.000218\H,0,
 -10.108224,-2.336578,-4.340615\H,0,-4.328708,8.377642,-1.966757\H,0,-3
 .765456,7.235335,-3.222197\H,0,-2.943262,8.806159,-3.008213\H,0,10.617
 785,2.830271,-2.953384\H,0,9.803596,3.935071,-1.811062\H,0,9.376501,3.
 96839,-3.546862\H,0,5.234533,-7.763548,-2.646542\H,0,4.954944,-6.42007
 8,-3.792863\H,0,4.155305,-7.995752,-4.04984\H,0,-4.787432,-5.443057,2.
 819837\H,0,-5.124748,-3.918851,0.896402\H,0,-2.704218,-6.81007,2.97124
 9\H,0,-1.002029,-6.65103,1.143522\O,0,-1.128044,-5.166092,-0.946187\O,
 0,5.208793,-1.076679,1.95315\H,0,7.283168,-1.323734,3.696491\H,0,7.812
 719,-3.383532,4.937211\H,0,6.398872,-5.419052,4.657508\H,0,4.423106,-5
 .333928,3.138683\H,0,3.675637,6.122023,2.541046\H,0,4.24299,4.053863,1
 .270443\H,0,2.144037,7.802735,1.515266\H,0,1.218089,7.428391,-0.73501\
 O,0,1.744848,5.243656,-2.265205\O,0,-5.269765,0.88608,1.839684\H,0,-7.
 512302,1.03567,3.365441\H,0,-8.238906,3.051979,4.579651\H,0,-6.868129,
 5.135311,4.480757\H,0,-4.749618,5.143993,3.179081\C,0,0.906295,6.19026
 5,-2.913999\C,0,-6.003061,-0.326988,1.870621\C,0,-1.459261,-5.778287,-
 2.195407\C,0,6.013606,0.090378,2.026204\H,0,0.690925,5.764918,-3.89591
 8\H,0,1.416317,7.154725,-3.041293\H,0,-0.034302,6.346659,-2.372905\H,0
 ,7.05415,-0.120141,1.746341\H,0,5.991415,0.531691,3.031473\H,0,5.58677
 1,0.79181,1.307684\H,0,-0.578203,-5.666509,-2.830452\H,0,-2.315801,-5.
 287275,-2.669343\H,0,-1.67974,-6.845421,-2.058389\H,0,-5.460479,-1.018
 116,1.223232\H,0,-7.022371,-0.193591,1.483805\H,0,-6.054144,-0.741607,
 2.886001\\Version=EM64L-G09RevA.02\State=1-A\HF=-3948.5019381\RMSD=5.7
 86e-09\Dipole=-0.7030787,1.05281,-0.9271092\Quadrupole=14.5808076,-2.7
 211919,-11.8596157,-2.5827697,6.6101017,-9.1793477\PG=C01 [X(C81H68N4O
 8)]\\@


 HE THAT FOLLOWS NATURE IS NEVER LOST.

                             -- BACON
 Job cpu time:  0 days 10 hours 30 minutes 54.4 seconds.
 File lengths (MBytes):  RWF=   1440 Int=      0 D2E=      0 Chk=     94 Scr=      1
 Normal termination of Gaussian 09 at Tue Feb  3 01:19:21 2015.
