 Entering Gaussian System, Link 0=g09
 Input=sp_7_B3LYP_cc-pVDZ.com
 Output=sp_7_B3LYP_cc-pVDZ.log
 Initial command:
 /opt/g09/l1.exe /home/jarvist/2014-07_SPIRO/b3lyp-631gs_opt/delta_scf/neutral/Gau-45055.inp -scrdir=/home/jarvist/2014-07_SPIRO/b3lyp-631gs_opt/delta_scf/neutral/
 Default is to use a total of   8 processors:
                                8 via shared-memory
                                1 via Linda
 Entering Link 1 = /opt/g09/l1.exe PID=     45057.
  
 Copyright (c) 1988,1990,1992,1993,1995,1998,2003,2009, Gaussian, Inc.
                  All Rights Reserved.
  
 This is part of the Gaussian(R) 09 program.  It is based on
 the Gaussian(R) 03 system (copyright 2003, Gaussian, Inc.),
 the Gaussian(R) 98 system (copyright 1998, Gaussian, Inc.),
 the Gaussian(R) 94 system (copyright 1995, Gaussian, Inc.),
 the Gaussian 92(TM) system (copyright 1992, Gaussian, Inc.),
 the Gaussian 90(TM) system (copyright 1990, Gaussian, Inc.),
 the Gaussian 88(TM) system (copyright 1988, Gaussian, Inc.),
 the Gaussian 86(TM) system (copyright 1986, Carnegie Mellon
 University), and the Gaussian 82(TM) system (copyright 1983,
 Carnegie Mellon University). Gaussian is a federally registered
 trademark of Gaussian, Inc.
  
 This software contains proprietary and confidential information,
 including trade secrets, belonging to Gaussian, Inc.
  
 This software is provided under written license and may be
 used, copied, transmitted, or stored only in accord with that
 written license.
  
 The following legend is applicable only to US Government
 contracts under FAR:
  
                    RESTRICTED RIGHTS LEGEND
  
 Use, reproduction and disclosure by the US Government is
 subject to restrictions as set forth in subparagraphs (a)
 and (c) of the Commercial Computer Software - Restricted
 Rights clause in FAR 52.227-19.
  
 Gaussian, Inc.
 340 Quinnipiac St., Bldg. 40, Wallingford CT 06492
  
  
 ---------------------------------------------------------------
 Warning -- This program may not be used in any manner that
 competes with the business of Gaussian, Inc. or will provide
 assistance to any competitor of Gaussian, Inc.  The licensee
 of this program is prohibited from giving any competitor of
 Gaussian, Inc. access to this program.  By using this program,
 the user acknowledges that Gaussian, Inc. is engaged in the
 business of creating and licensing software in the field of
 computational chemistry and represents and warrants to the
 licensee that it is not a competitor of Gaussian, Inc. and that
 it will not use this program in any manner prohibited above.
 ---------------------------------------------------------------
  

 Cite this work as:
 Gaussian 09, Revision A.02,
 M. J. Frisch, G. W. Trucks, H. B. Schlegel, G. E. Scuseria, 
 M. A. Robb, J. R. Cheeseman, G. Scalmani, V. Barone, B. Mennucci, 
 G. A. Petersson, H. Nakatsuji, M. Caricato, X. Li, H. P. Hratchian, 
 A. F. Izmaylov, J. Bloino, G. Zheng, J. L. Sonnenberg, M. Hada, 
 M. Ehara, K. Toyota, R. Fukuda, J. Hasegawa, M. Ishida, T. Nakajima, 
 Y. Honda, O. Kitao, H. Nakai, T. Vreven, J. A. Montgomery, Jr., 
 J. E. Peralta, F. Ogliaro, M. Bearpark, J. J. Heyd, E. Brothers, 
 K. N. Kudin, V. N. Staroverov, R. Kobayashi, J. Normand, 
 K. Raghavachari, A. Rendell, J. C. Burant, S. S. Iyengar, J. Tomasi, 
 M. Cossi, N. Rega, J. M. Millam, M. Klene, J. E. Knox, J. B. Cross, 
 V. Bakken, C. Adamo, J. Jaramillo, R. Gomperts, R. E. Stratmann, 
 O. Yazyev, A. J. Austin, R. Cammi, C. Pomelli, J. W. Ochterski, 
 R. L. Martin, K. Morokuma, V. G. Zakrzewski, G. A. Voth, 
 P. Salvador, J. J. Dannenberg, S. Dapprich, A. D. Daniels, 
 O. Farkas, J. B. Foresman, J. V. Ortiz, J. Cioslowski, 
 and D. J. Fox, Gaussian, Inc., Wallingford CT, 2009.
 
 ******************************************
 Gaussian 09:  EM64L-G09RevA.02 11-Jun-2009
                 3-Feb-2015 
 ******************************************
 %mem=16GB
 %nprocs=24
 Will use up to   24 processors via shared memory.
 Default route:  MaxDisk=100GB
 -------------------
 #p sp B3LYP/cc-pVDZ
 -------------------
 1/38=1/1;
 2/12=2,17=6,18=5,40=1/2;
 3/5=16,11=2,16=1,25=1,30=1,74=-5/1,2,3;
 4//1;
 5/5=2,38=5/2;
 6/7=2,8=2,9=2,10=2,28=1/1;
 99/5=1,9=1/99;
 Leave Link    1 at Tue Feb  3 01:19:21 2015, MaxMem= 2147483648 cpu:       1.6
 (Enter /opt/g09/l101.exe)
 ------------------------------------------
 Auto Spiro; and yes I said yes I will Yes.
 ------------------------------------------
 Symbolic Z-matrix:
 Charge =  0 Multiplicity = 1
 C                    -0.01768   0.11833   0.40744 
 C                    -0.64802   1.1094    1.39355 
 C                    -0.54011   0.62825   2.71395 
 C                     0.26227  -0.59845   2.69894 
 C                     0.59861  -0.90504   1.36506 
 C                    -1.10636  -0.48575  -0.49678 
 C                    -0.83814  -0.20149  -1.84797 
 C                     0.43131   0.52271  -1.93205 
 C                     0.93592   0.71789  -0.62967 
 C                    -2.24568  -1.17694  -0.11647 
 C                    -3.15013  -1.60555  -1.10501 
 C                    -2.88561  -1.3179   -2.4574 
 C                    -1.741    -0.6173   -2.83091 
 C                     0.71132  -1.42652   3.72952 
 C                     1.48351  -2.54476   3.42351 
 C                     1.83023  -2.84564   2.0921 
 C                     1.376    -2.00853   1.0539 
 C                    -1.34417   2.27437   1.11306 
 C                    -1.99103   2.95273   2.15919 
 C                    -1.91123   2.45896   3.46984 
 C                    -1.17687   1.30672   3.75645 
 C                     1.15953   0.98176  -3.03217 
 C                     2.38148   1.61544  -2.82703 
 C                     2.90206   1.78857  -1.52989 
 C                     2.1571    1.34232  -0.42008 
 N                    -4.313    -2.33716  -0.74062 
 N                     2.64309  -3.97194   1.80476 
 N                    -2.75916   4.13094   1.88194 
 N                     4.17301   2.39358  -1.35042 
 C                     5.25748   2.04742  -2.19994 
 C                    -2.0612    5.27074   1.40345 
 C                     4.35761   3.37229  -0.33083 
 C                    -4.16909   4.00436   1.74371 
 C                    -4.20739  -3.37594   0.22974 
 C                    -5.57951  -1.99015  -1.27317 
 C                     3.72549  -4.30089   2.67103 
 C                     2.387    -4.78024   0.66555 
 C                     3.9124   -5.61195   3.12155 
 C                     4.98342  -5.94391   3.95471 
 C                     5.87683  -4.95059   4.37104 
 C                     5.68968  -3.63102   3.93272 
 C                     4.6363   -3.31358   3.0871 
 C                    -5.11742  -3.4703    1.28848 
 C                    -5.0243   -4.49662   2.23194 
 C                    -3.9917   -5.43607   2.14053 
 C                    -3.0663   -5.33869   1.09089 
 C                    -3.17824  -4.33055   0.14334 
 C                    -6.50456  -3.00141  -1.59202 
 C                    -7.76276  -2.66738  -2.08787 
 C                    -8.11904  -1.31874  -2.32198 
 C                    -7.17986  -0.32142  -2.01566 
 C                    -5.92727  -0.65441  -1.48566 
 C                     3.46185  -5.26841  -0.09901 
 C                     3.21181  -6.06166  -1.21573 
 C                     1.89028  -6.39235  -1.60109 
 C                     0.82821  -5.89416  -0.82883 
 C                     1.08132  -5.10232   0.30026 
 C                    -0.87595   5.64697   2.05162 
 C                    -0.14365   6.74099   1.58494 
 C                    -0.58407   7.47471   0.47095 
 C                    -1.79064   7.10897  -0.15031 
 C                    -2.52218   6.00415   0.30044 
 C                    -4.75696   2.80758   1.3173 
 C                    -6.14344   2.68101   1.19691 
 C                    -6.97275   3.76755   1.48667 
 C                    -6.39367   4.96991   1.9219 
 C                    -5.01757   5.0831    2.05939 
 C                     3.46205   4.44693  -0.19527 
 C                     3.65382   5.41544   0.78155 
 C                     4.75782   5.33682   1.64388 
 C                     5.6584    4.2732    1.5183 
 C                     5.44765   3.29677   0.54256 
 C                     5.42938   0.71595  -2.60654 
 C                     6.49147   0.37913  -3.45145 
 C                     7.40253   1.35816  -3.88307 
 C                     7.23546   2.68351  -3.44613 
 C                     6.15965   3.03376  -2.62347 
 H                     2.55551   1.47166   0.58165 
 H                    -1.42389   2.65444   0.09853 
 H                    -2.42982   2.99423   4.2598 
 H                    -1.11283   0.94325   4.77895 
 H                     0.45851  -1.21492   4.76544 
 H                     1.82852  -3.19826   4.21804 
 H                     0.78139   0.85381  -4.04331 
 H                     2.95488   1.9771   -3.67428 
 H                    -1.55307  -0.41353  -3.88206 
 H                    -3.58632  -1.65778  -3.21344 
 H                     1.64045  -2.23028   0.02505 
 H                    -2.45009  -1.38835   0.92853 
 O                     4.86849   6.34184   2.5696 
 C                     5.98447   6.32404   3.44283 
 O                    -8.33628   3.76073   1.38109 
 C                    -8.95976   2.55875   0.95036 
 O                     6.95065  -5.15876   5.19119 
 O                    -3.80147  -6.47496   3.01084 
 C                    -4.6955   -6.60109   4.10257 
 C                     7.17684  -6.4718    5.67499 
 H                     6.39402  -2.87147   4.25764 
 H                     4.50729  -2.29186   2.74359 
 H                    -5.91184  -2.73567   1.37682 
 H                    -5.75017  -4.53725   3.03633 
 H                     5.09731  -6.97131   4.28159 
 H                     3.21378  -6.38383   2.81374 
 H                    -2.26592  -6.068     1.02098 
 H                    -2.45546  -4.28255  -0.66471 
 H                     6.14604   2.47047   0.4515 
 H                     6.51646   4.18344   2.17497 
 H                     2.96505   6.24891   0.88007 
 H                     2.61233   4.52287  -0.86678 
 H                    -6.55372   1.73992   0.84985 
 H                    -4.13006   1.9569    1.07212 
 H                    -7.04698   5.80379   2.16102 
 H                    -4.58583   6.01565   2.4091 
 H                    -8.78615   1.74025   1.66263 
 H                    -8.60761   2.24767  -0.04102 
 H                    -10.02916   2.77595   0.90856 
 H                    -5.72903  -6.75965   3.76504 
 H                    -4.66478  -5.71902   4.75651 
 H                    -4.36321  -7.47645   4.66424 
 H                     8.0679   -6.4113    6.30272 
 H                     7.3592   -7.17995   4.8552 
 H                     6.33266  -6.83192   6.27833 
 H                     6.93195   6.37482   2.88952 
 H                     5.98933   5.42806   4.07858 
 H                     5.88835   7.21086   4.07234 
 O                    -2.15867   7.89076  -1.20763 
 H                    -3.43404   5.69937  -0.1952 
 O                     1.01693   7.18328   2.15642 
 H                    -0.54645   5.08253   2.91335 
 H                     4.73778  -0.03728  -2.25351 
 O                     6.74164  -0.88692  -3.89788 
 O                     8.17231   3.56709  -3.89856 
 H                     6.00812   4.05775  -2.30953 
 O                     4.19268  -6.54137  -2.04 
 H                     4.47218  -5.00162   0.18077 
 O                    -0.50013  -6.08003  -1.10142 
 H                     0.23563  -4.75024   0.87907 
 H                    -5.24123   0.15023  -1.24857 
 O                    -7.44424   1.02238  -2.10533 
 O                    -8.73483  -3.58704  -2.37251 
 H                    -6.2269   -4.03492  -1.43386 
 O                     0.17569   8.50485  -0.03099 
 C                    -0.1072    9.77896   0.54419 
 O                    -9.38978  -0.97046  -2.72337 
 C                    -9.77697  -1.38613  -4.03675 
 O                     1.6482   -7.08226  -2.76954 
 C                     2.07641  -8.44638  -2.80248 
 O                     8.40799   1.03428  -4.76175 
 C                     9.63322   0.65334  -4.13942 
 H                     0.56318   10.49209   0.05703 
 H                     0.08778   9.77838   1.62406 
 H                    -1.14749   10.07526   0.35817 
 H                     10.33045   0.42236  -4.94915 
 H                     9.49918  -0.23726  -3.51204 
 H                     10.04147   1.47196  -3.53308 
 H                     3.16183  -8.52577  -2.70243 
 H                     1.59131  -9.032    -2.00934 
 H                     1.76826  -8.83434  -3.77659 
 H                    -9.09698  -0.97612  -4.79579 
 H                    -10.78008  -0.98247  -4.19559 
 H                    -9.80177  -2.47557  -4.1189 
 C                     8.04095   4.92917  -3.52592 
 C                     5.54007  -6.2091   -1.74549 
 C                    -8.47263  -4.95144  -2.08334 
 C                    -3.35516   7.56466  -1.89452 
 H                     6.14061  -6.68554  -2.52268 
 H                     5.70215  -5.12366  -1.77551 
 H                     5.84676  -6.59027  -0.76276 
 H                     8.88313   5.44656  -3.9896 
 H                     8.0891    5.05906  -2.43655 
 H                     7.10211   5.36093  -3.89674 
 H                    -3.45878   8.31316  -2.68272 
 H                    -4.23018   7.61005  -1.2325 
 H                    -3.30177   6.56626  -2.34847 
 H                    -8.24312  -5.09906  -1.02044 
 H                    -7.64323  -5.34183  -2.68769 
 H                    -9.38794  -5.49     -2.33616 
 C                     5.81118  -1.90546  -3.57116 
 C                    -0.96699  -7.26333  -1.749 
 C                    -8.0659    1.534    -3.28457 
 C                     1.46468   6.53872   3.34175 
 H                    -2.04489  -7.27953  -1.57003 
 H                    -0.51717  -8.16102  -1.30707 
 H                    -0.76459  -7.24462  -2.82137 
 H                    -7.85047   2.60559  -3.291 
 H                    -9.14609   1.37237  -3.27331 
 H                    -7.63538   1.07672  -4.18462 
 H                     2.40733   7.02102   3.60163 
 H                     1.64974   5.47091   3.17398 
 H                     0.73888   6.65928   4.15696 
 H                     6.16893  -2.80715  -4.07246 
 H                     4.80349  -1.66497  -3.93341 
 H                     5.76713  -2.08548  -2.48802 
 
 NAtoms=    193 NQM=    193 NQMF=      0 NMic=      0 NMicF=      0 NTot=    193.
                    Isotopes and Nuclear Properties:
 (Nuclear quadrupole moments (NQMom) in fm**2, nuclear magnetic moments (NMagM)
  in nuclear magnetons)

  Atom         1           2           3           4           5           6           7           8           9          10
 IAtWgt=          12          12          12          12          12          12          12          12          12          12
 AtmWgt=  12.0000000  12.0000000  12.0000000  12.0000000  12.0000000  12.0000000  12.0000000  12.0000000  12.0000000  12.0000000
 NucSpn=           0           0           0           0           0           0           0           0           0           0
 AtZEff=   0.0000000   0.0000000   0.0000000   0.0000000   0.0000000   0.0000000   0.0000000   0.0000000   0.0000000   0.0000000
 NQMom=    0.0000000   0.0000000   0.0000000   0.0000000   0.0000000   0.0000000   0.0000000   0.0000000   0.0000000   0.0000000
 NMagM=    0.0000000   0.0000000   0.0000000   0.0000000   0.0000000   0.0000000   0.0000000   0.0000000   0.0000000   0.0000000

  Atom        11          12          13          14          15          16          17          18          19          20
 IAtWgt=          12          12          12          12          12          12          12          12          12          12
 AtmWgt=  12.0000000  12.0000000  12.0000000  12.0000000  12.0000000  12.0000000  12.0000000  12.0000000  12.0000000  12.0000000
 NucSpn=           0           0           0           0           0           0           0           0           0           0
 AtZEff=   0.0000000   0.0000000   0.0000000   0.0000000   0.0000000   0.0000000   0.0000000   0.0000000   0.0000000   0.0000000
 NQMom=    0.0000000   0.0000000   0.0000000   0.0000000   0.0000000   0.0000000   0.0000000   0.0000000   0.0000000   0.0000000
 NMagM=    0.0000000   0.0000000   0.0000000   0.0000000   0.0000000   0.0000000   0.0000000   0.0000000   0.0000000   0.0000000

  Atom        21          22          23          24          25          26          27          28          29          30
 IAtWgt=          12          12          12          12          12          14          14          14          14          12
 AtmWgt=  12.0000000  12.0000000  12.0000000  12.0000000  12.0000000  14.0030740  14.0030740  14.0030740  14.0030740  12.0000000
 NucSpn=           0           0           0           0           0           2           2           2           2           0
 AtZEff=   0.0000000   0.0000000   0.0000000   0.0000000   0.0000000   0.0000000   0.0000000   0.0000000   0.0000000   0.0000000
 NQMom=    0.0000000   0.0000000   0.0000000   0.0000000   0.0000000   2.0440000   2.0440000   2.0440000   2.0440000   0.0000000
 NMagM=    0.0000000   0.0000000   0.0000000   0.0000000   0.0000000   0.4037610   0.4037610   0.4037610   0.4037610   0.0000000

  Atom        31          32          33          34          35          36          37          38          39          40
 IAtWgt=          12          12          12          12          12          12          12          12          12          12
 AtmWgt=  12.0000000  12.0000000  12.0000000  12.0000000  12.0000000  12.0000000  12.0000000  12.0000000  12.0000000  12.0000000
 NucSpn=           0           0           0           0           0           0           0           0           0           0
 AtZEff=   0.0000000   0.0000000   0.0000000   0.0000000   0.0000000   0.0000000   0.0000000   0.0000000   0.0000000   0.0000000
 NQMom=    0.0000000   0.0000000   0.0000000   0.0000000   0.0000000   0.0000000   0.0000000   0.0000000   0.0000000   0.0000000
 NMagM=    0.0000000   0.0000000   0.0000000   0.0000000   0.0000000   0.0000000   0.0000000   0.0000000   0.0000000   0.0000000

  Atom        41          42          43          44          45          46          47          48          49          50
 IAtWgt=          12          12          12          12          12          12          12          12          12          12
 AtmWgt=  12.0000000  12.0000000  12.0000000  12.0000000  12.0000000  12.0000000  12.0000000  12.0000000  12.0000000  12.0000000
 NucSpn=           0           0           0           0           0           0           0           0           0           0
 AtZEff=   0.0000000   0.0000000   0.0000000   0.0000000   0.0000000   0.0000000   0.0000000   0.0000000   0.0000000   0.0000000
 NQMom=    0.0000000   0.0000000   0.0000000   0.0000000   0.0000000   0.0000000   0.0000000   0.0000000   0.0000000   0.0000000
 NMagM=    0.0000000   0.0000000   0.0000000   0.0000000   0.0000000   0.0000000   0.0000000   0.0000000   0.0000000   0.0000000

  Atom        51          52          53          54          55          56          57          58          59          60
 IAtWgt=          12          12          12          12          12          12          12          12          12          12
 AtmWgt=  12.0000000  12.0000000  12.0000000  12.0000000  12.0000000  12.0000000  12.0000000  12.0000000  12.0000000  12.0000000
 NucSpn=           0           0           0           0           0           0           0           0           0           0
 AtZEff=   0.0000000   0.0000000   0.0000000   0.0000000   0.0000000   0.0000000   0.0000000   0.0000000   0.0000000   0.0000000
 NQMom=    0.0000000   0.0000000   0.0000000   0.0000000   0.0000000   0.0000000   0.0000000   0.0000000   0.0000000   0.0000000
 NMagM=    0.0000000   0.0000000   0.0000000   0.0000000   0.0000000   0.0000000   0.0000000   0.0000000   0.0000000   0.0000000

  Atom        61          62          63          64          65          66          67          68          69          70
 IAtWgt=          12          12          12          12          12          12          12          12          12          12
 AtmWgt=  12.0000000  12.0000000  12.0000000  12.0000000  12.0000000  12.0000000  12.0000000  12.0000000  12.0000000  12.0000000
 NucSpn=           0           0           0           0           0           0           0           0           0           0
 AtZEff=   0.0000000   0.0000000   0.0000000   0.0000000   0.0000000   0.0000000   0.0000000   0.0000000   0.0000000   0.0000000
 NQMom=    0.0000000   0.0000000   0.0000000   0.0000000   0.0000000   0.0000000   0.0000000   0.0000000   0.0000000   0.0000000
 NMagM=    0.0000000   0.0000000   0.0000000   0.0000000   0.0000000   0.0000000   0.0000000   0.0000000   0.0000000   0.0000000

  Atom        71          72          73          74          75          76          77          78          79          80
 IAtWgt=          12          12          12          12          12          12          12           1           1           1
 AtmWgt=  12.0000000  12.0000000  12.0000000  12.0000000  12.0000000  12.0000000  12.0000000   1.0078250   1.0078250   1.0078250
 NucSpn=           0           0           0           0           0           0           0           1           1           1
 AtZEff=   0.0000000   0.0000000   0.0000000   0.0000000   0.0000000   0.0000000   0.0000000   0.0000000   0.0000000   0.0000000
 NQMom=    0.0000000   0.0000000   0.0000000   0.0000000   0.0000000   0.0000000   0.0000000   0.0000000   0.0000000   0.0000000
 NMagM=    0.0000000   0.0000000   0.0000000   0.0000000   0.0000000   0.0000000   0.0000000   2.7928460   2.7928460   2.7928460

  Atom        81          82          83          84          85          86          87          88          89          90
 IAtWgt=           1           1           1           1           1           1           1           1           1          16
 AtmWgt=   1.0078250   1.0078250   1.0078250   1.0078250   1.0078250   1.0078250   1.0078250   1.0078250   1.0078250  15.9949146
 NucSpn=           1           1           1           1           1           1           1           1           1           0
 AtZEff=   0.0000000   0.0000000   0.0000000   0.0000000   0.0000000   0.0000000   0.0000000   0.0000000   0.0000000   0.0000000
 NQMom=    0.0000000   0.0000000   0.0000000   0.0000000   0.0000000   0.0000000   0.0000000   0.0000000   0.0000000   0.0000000
 NMagM=    2.7928460   2.7928460   2.7928460   2.7928460   2.7928460   2.7928460   2.7928460   2.7928460   2.7928460   0.0000000

  Atom        91          92          93          94          95          96          97          98          99         100
 IAtWgt=          12          16          12          16          16          12          12           1           1           1
 AtmWgt=  12.0000000  15.9949146  12.0000000  15.9949146  15.9949146  12.0000000  12.0000000   1.0078250   1.0078250   1.0078250
 NucSpn=           0           0           0           0           0           0           0           1           1           1
 AtZEff=   0.0000000   0.0000000   0.0000000   0.0000000   0.0000000   0.0000000   0.0000000   0.0000000   0.0000000   0.0000000
 NQMom=    0.0000000   0.0000000   0.0000000   0.0000000   0.0000000   0.0000000   0.0000000   0.0000000   0.0000000   0.0000000
 NMagM=    0.0000000   0.0000000   0.0000000   0.0000000   0.0000000   0.0000000   0.0000000   2.7928460   2.7928460   2.7928460

  Atom       101         102         103         104         105         106         107         108         109         110
 IAtWgt=           1           1           1           1           1           1           1           1           1           1
 AtmWgt=   1.0078250   1.0078250   1.0078250   1.0078250   1.0078250   1.0078250   1.0078250   1.0078250   1.0078250   1.0078250
 NucSpn=           1           1           1           1           1           1           1           1           1           1
 AtZEff=   0.0000000   0.0000000   0.0000000   0.0000000   0.0000000   0.0000000   0.0000000   0.0000000   0.0000000   0.0000000
 NQMom=    0.0000000   0.0000000   0.0000000   0.0000000   0.0000000   0.0000000   0.0000000   0.0000000   0.0000000   0.0000000
 NMagM=    2.7928460   2.7928460   2.7928460   2.7928460   2.7928460   2.7928460   2.7928460   2.7928460   2.7928460   2.7928460

  Atom       111         112         113         114         115         116         117         118         119         120
 IAtWgt=           1           1           1           1           1           1           1           1           1           1
 AtmWgt=   1.0078250   1.0078250   1.0078250   1.0078250   1.0078250   1.0078250   1.0078250   1.0078250   1.0078250   1.0078250
 NucSpn=           1           1           1           1           1           1           1           1           1           1
 AtZEff=   0.0000000   0.0000000   0.0000000   0.0000000   0.0000000   0.0000000   0.0000000   0.0000000   0.0000000   0.0000000
 NQMom=    0.0000000   0.0000000   0.0000000   0.0000000   0.0000000   0.0000000   0.0000000   0.0000000   0.0000000   0.0000000
 NMagM=    2.7928460   2.7928460   2.7928460   2.7928460   2.7928460   2.7928460   2.7928460   2.7928460   2.7928460   2.7928460

  Atom       121         122         123         124         125         126         127         128         129         130
 IAtWgt=           1           1           1           1           1          16           1          16           1           1
 AtmWgt=   1.0078250   1.0078250   1.0078250   1.0078250   1.0078250  15.9949146   1.0078250  15.9949146   1.0078250   1.0078250
 NucSpn=           1           1           1           1           1           0           1           0           1           1
 AtZEff=   0.0000000   0.0000000   0.0000000   0.0000000   0.0000000   0.0000000   0.0000000   0.0000000   0.0000000   0.0000000
 NQMom=    0.0000000   0.0000000   0.0000000   0.0000000   0.0000000   0.0000000   0.0000000   0.0000000   0.0000000   0.0000000
 NMagM=    2.7928460   2.7928460   2.7928460   2.7928460   2.7928460   0.0000000   2.7928460   0.0000000   2.7928460   2.7928460

  Atom       131         132         133         134         135         136         137         138         139         140
 IAtWgt=          16          16           1          16           1          16           1           1          16          16
 AtmWgt=  15.9949146  15.9949146   1.0078250  15.9949146   1.0078250  15.9949146   1.0078250   1.0078250  15.9949146  15.9949146
 NucSpn=           0           0           1           0           1           0           1           1           0           0
 AtZEff=   0.0000000   0.0000000   0.0000000   0.0000000   0.0000000   0.0000000   0.0000000   0.0000000   0.0000000   0.0000000
 NQMom=    0.0000000   0.0000000   0.0000000   0.0000000   0.0000000   0.0000000   0.0000000   0.0000000   0.0000000   0.0000000
 NMagM=    0.0000000   0.0000000   2.7928460   0.0000000   2.7928460   0.0000000   2.7928460   2.7928460   0.0000000   0.0000000

  Atom       141         142         143         144         145         146         147         148         149         150
 IAtWgt=           1          16          12          16          12          16          12          16          12           1
 AtmWgt=   1.0078250  15.9949146  12.0000000  15.9949146  12.0000000  15.9949146  12.0000000  15.9949146  12.0000000   1.0078250
 NucSpn=           1           0           0           0           0           0           0           0           0           1
 AtZEff=   0.0000000   0.0000000   0.0000000   0.0000000   0.0000000   0.0000000   0.0000000   0.0000000   0.0000000   0.0000000
 NQMom=    0.0000000   0.0000000   0.0000000   0.0000000   0.0000000   0.0000000   0.0000000   0.0000000   0.0000000   0.0000000
 NMagM=    2.7928460   0.0000000   0.0000000   0.0000000   0.0000000   0.0000000   0.0000000   0.0000000   0.0000000   2.7928460

  Atom       151         152         153         154         155         156         157         158         159         160
 IAtWgt=           1           1           1           1           1           1           1           1           1           1
 AtmWgt=   1.0078250   1.0078250   1.0078250   1.0078250   1.0078250   1.0078250   1.0078250   1.0078250   1.0078250   1.0078250
 NucSpn=           1           1           1           1           1           1           1           1           1           1
 AtZEff=   0.0000000   0.0000000   0.0000000   0.0000000   0.0000000   0.0000000   0.0000000   0.0000000   0.0000000   0.0000000
 NQMom=    0.0000000   0.0000000   0.0000000   0.0000000   0.0000000   0.0000000   0.0000000   0.0000000   0.0000000   0.0000000
 NMagM=    2.7928460   2.7928460   2.7928460   2.7928460   2.7928460   2.7928460   2.7928460   2.7928460   2.7928460   2.7928460

  Atom       161         162         163         164         165         166         167         168         169         170
 IAtWgt=           1          12          12          12          12           1           1           1           1           1
 AtmWgt=   1.0078250  12.0000000  12.0000000  12.0000000  12.0000000   1.0078250   1.0078250   1.0078250   1.0078250   1.0078250
 NucSpn=           1           0           0           0           0           1           1           1           1           1
 AtZEff=   0.0000000   0.0000000   0.0000000   0.0000000   0.0000000   0.0000000   0.0000000   0.0000000   0.0000000   0.0000000
 NQMom=    0.0000000   0.0000000   0.0000000   0.0000000   0.0000000   0.0000000   0.0000000   0.0000000   0.0000000   0.0000000
 NMagM=    2.7928460   0.0000000   0.0000000   0.0000000   0.0000000   2.7928460   2.7928460   2.7928460   2.7928460   2.7928460

  Atom       171         172         173         174         175         176         177         178         179         180
 IAtWgt=           1           1           1           1           1           1           1          12          12          12
 AtmWgt=   1.0078250   1.0078250   1.0078250   1.0078250   1.0078250   1.0078250   1.0078250  12.0000000  12.0000000  12.0000000
 NucSpn=           1           1           1           1           1           1           1           0           0           0
 AtZEff=   0.0000000   0.0000000   0.0000000   0.0000000   0.0000000   0.0000000   0.0000000   0.0000000   0.0000000   0.0000000
 NQMom=    0.0000000   0.0000000   0.0000000   0.0000000   0.0000000   0.0000000   0.0000000   0.0000000   0.0000000   0.0000000
 NMagM=    2.7928460   2.7928460   2.7928460   2.7928460   2.7928460   2.7928460   2.7928460   0.0000000   0.0000000   0.0000000

  Atom       181         182         183         184         185         186         187         188         189         190
 IAtWgt=          12           1           1           1           1           1           1           1           1           1
 AtmWgt=  12.0000000   1.0078250   1.0078250   1.0078250   1.0078250   1.0078250   1.0078250   1.0078250   1.0078250   1.0078250
 NucSpn=           0           1           1           1           1           1           1           1           1           1
 AtZEff=   0.0000000   0.0000000   0.0000000   0.0000000   0.0000000   0.0000000   0.0000000   0.0000000   0.0000000   0.0000000
 NQMom=    0.0000000   0.0000000   0.0000000   0.0000000   0.0000000   0.0000000   0.0000000   0.0000000   0.0000000   0.0000000
 NMagM=    0.0000000   2.7928460   2.7928460   2.7928460   2.7928460   2.7928460   2.7928460   2.7928460   2.7928460   2.7928460

  Atom       191         192         193
 IAtWgt=           1           1           1
 AtmWgt=   1.0078250   1.0078250   1.0078250
 NucSpn=           1           1           1
 AtZEff=   0.0000000   0.0000000   0.0000000
 NQMom=    0.0000000   0.0000000   0.0000000
 NMagM=    2.7928460   2.7928460   2.7928460
 Leave Link  101 at Tue Feb  3 01:19:21 2015, MaxMem= 2147483648 cpu:       3.1
 (Enter /opt/g09/l202.exe)
 Stoichiometry    C89H84N4O16
 Framework group  C1[X(C89H84N4O16)]
 Deg. of freedom   573
 Full point group                 C1      NOp   1
 Largest Abelian subgroup         C1      NOp   1
 Largest concise Abelian subgroup C1      NOp   1
                         Standard orientation:                         
 ---------------------------------------------------------------------
 Center     Atomic      Atomic             Coordinates (Angstroms)
 Number     Number       Type             X           Y           Z
 ---------------------------------------------------------------------
      1          6           0       -0.017675    0.118327    0.407437
      2          6           0       -0.648023    1.109399    1.393546
      3          6           0       -0.540105    0.628247    2.713948
      4          6           0        0.262268   -0.598449    2.698935
      5          6           0        0.598611   -0.905043    1.365060
      6          6           0       -1.106362   -0.485747   -0.496783
      7          6           0       -0.838143   -0.201491   -1.847968
      8          6           0        0.431314    0.522709   -1.932050
      9          6           0        0.935922    0.717889   -0.629665
     10          6           0       -2.245677   -1.176944   -0.116466
     11          6           0       -3.150125   -1.605554   -1.105014
     12          6           0       -2.885607   -1.317900   -2.457400
     13          6           0       -1.741004   -0.617299   -2.830907
     14          6           0        0.711317   -1.426516    3.729518
     15          6           0        1.483510   -2.544765    3.423512
     16          6           0        1.830228   -2.845637    2.092098
     17          6           0        1.375999   -2.008534    1.053903
     18          6           0       -1.344169    2.274367    1.113060
     19          6           0       -1.991032    2.952734    2.159192
     20          6           0       -1.911228    2.458957    3.469840
     21          6           0       -1.176866    1.306723    3.756445
     22          6           0        1.159529    0.981757   -3.032172
     23          6           0        2.381478    1.615439   -2.827033
     24          6           0        2.902058    1.788571   -1.529885
     25          6           0        2.157100    1.342315   -0.420075
     26          7           0       -4.313001   -2.337159   -0.740616
     27          7           0        2.643092   -3.971935    1.804756
     28          7           0       -2.759163    4.130941    1.881936
     29          7           0        4.173013    2.393583   -1.350416
     30          6           0        5.257477    2.047424   -2.199941
     31          6           0       -2.061197    5.270736    1.403448
     32          6           0        4.357610    3.372289   -0.330826
     33          6           0       -4.169089    4.004363    1.743708
     34          6           0       -4.207392   -3.375937    0.229742
     35          6           0       -5.579511   -1.990151   -1.273165
     36          6           0        3.725486   -4.300893    2.671030
     37          6           0        2.386995   -4.780235    0.665552
     38          6           0        3.912396   -5.611954    3.121555
     39          6           0        4.983421   -5.943911    3.954712
     40          6           0        5.876826   -4.950591    4.371036
     41          6           0        5.689678   -3.631015    3.932721
     42          6           0        4.636295   -3.313578    3.087097
     43          6           0       -5.117418   -3.470298    1.288477
     44          6           0       -5.024301   -4.496615    2.231936
     45          6           0       -3.991701   -5.436074    2.140528
     46          6           0       -3.066300   -5.338694    1.090889
     47          6           0       -3.178245   -4.330550    0.143339
     48          6           0       -6.504558   -3.001412   -1.592024
     49          6           0       -7.762759   -2.667382   -2.087874
     50          6           0       -8.119042   -1.318737   -2.321982
     51          6           0       -7.179857   -0.321417   -2.015664
     52          6           0       -5.927270   -0.654407   -1.485662
     53          6           0        3.461849   -5.268410   -0.099006
     54          6           0        3.211807   -6.061663   -1.215725
     55          6           0        1.890281   -6.392348   -1.601088
     56          6           0        0.828207   -5.894155   -0.828831
     57          6           0        1.081315   -5.102320    0.300264
     58          6           0       -0.875951    5.646971    2.051623
     59          6           0       -0.143645    6.740989    1.584942
     60          6           0       -0.584068    7.474705    0.470949
     61          6           0       -1.790637    7.108970   -0.150310
     62          6           0       -2.522177    6.004145    0.300442
     63          6           0       -4.756961    2.807577    1.317300
     64          6           0       -6.143445    2.681011    1.196906
     65          6           0       -6.972753    3.767551    1.486671
     66          6           0       -6.393670    4.969907    1.921895
     67          6           0       -5.017569    5.083098    2.059394
     68          6           0        3.462045    4.446929   -0.195270
     69          6           0        3.653815    5.415441    0.781550
     70          6           0        4.757820    5.336824    1.643884
     71          6           0        5.658396    4.273198    1.518303
     72          6           0        5.447652    3.296774    0.542561
     73          6           0        5.429384    0.715952   -2.606537
     74          6           0        6.491471    0.379134   -3.451453
     75          6           0        7.402526    1.358161   -3.883071
     76          6           0        7.235462    2.683506   -3.446127
     77          6           0        6.159648    3.033764   -2.623466
     78          1           0        2.555507    1.471656    0.581647
     79          1           0       -1.423894    2.654440    0.098527
     80          1           0       -2.429818    2.994227    4.259804
     81          1           0       -1.112829    0.943252    4.778954
     82          1           0        0.458508   -1.214923    4.765444
     83          1           0        1.828522   -3.198258    4.218040
     84          1           0        0.781390    0.853808   -4.043305
     85          1           0        2.954877    1.977096   -3.674279
     86          1           0       -1.553072   -0.413528   -3.882064
     87          1           0       -3.586321   -1.657779   -3.213442
     88          1           0        1.640450   -2.230281    0.025053
     89          1           0       -2.450087   -1.388352    0.928528
     90          8           0        4.868490    6.341841    2.569599
     91          6           0        5.984474    6.324035    3.442833
     92          8           0       -8.336279    3.760734    1.381088
     93          6           0       -8.959762    2.558747    0.950363
     94          8           0        6.950650   -5.158762    5.191189
     95          8           0       -3.801469   -6.474964    3.010844
     96          6           0       -4.695495   -6.601093    4.102571
     97          6           0        7.176838   -6.471801    5.674987
     98          1           0        6.394022   -2.871468    4.257642
     99          1           0        4.507288   -2.291860    2.743585
    100          1           0       -5.911838   -2.735672    1.376824
    101          1           0       -5.750173   -4.537251    3.036330
    102          1           0        5.097313   -6.971313    4.281586
    103          1           0        3.213784   -6.383834    2.813735
    104          1           0       -2.265920   -6.068004    1.020981
    105          1           0       -2.455462   -4.282552   -0.664713
    106          1           0        6.146044    2.470471    0.451503
    107          1           0        6.516457    4.183444    2.174965
    108          1           0        2.965049    6.248908    0.880066
    109          1           0        2.612326    4.522875   -0.866776
    110          1           0       -6.553718    1.739917    0.849852
    111          1           0       -4.130055    1.956903    1.072122
    112          1           0       -7.046977    5.803788    2.161022
    113          1           0       -4.585832    6.015654    2.409104
    114          1           0       -8.786147    1.740245    1.662634
    115          1           0       -8.607610    2.247669   -0.041024
    116          1           0      -10.029163    2.775949    0.908559
    117          1           0       -5.729030   -6.759651    3.765037
    118          1           0       -4.664783   -5.719015    4.756511
    119          1           0       -4.363206   -7.476449    4.664241
    120          1           0        8.067895   -6.411297    6.302717
    121          1           0        7.359197   -7.179948    4.855196
    122          1           0        6.332656   -6.831924    6.278328
    123          1           0        6.931945    6.374821    2.889522
    124          1           0        5.989328    5.428055    4.078583
    125          1           0        5.888348    7.210863    4.072344
    126          8           0       -2.158669    7.890764   -1.207626
    127          1           0       -3.434041    5.699367   -0.195198
    128          8           0        1.016925    7.183284    2.156421
    129          1           0       -0.546450    5.082534    2.913345
    130          1           0        4.737781   -0.037280   -2.253507
    131          8           0        6.741636   -0.886917   -3.897876
    132          8           0        8.172307    3.567090   -3.898557
    133          1           0        6.008119    4.057752   -2.309528
    134          8           0        4.192675   -6.541371   -2.040005
    135          1           0        4.472176   -5.001623    0.180771
    136          8           0       -0.500126   -6.080034   -1.101422
    137          1           0        0.235630   -4.750237    0.879073
    138          1           0       -5.241233    0.150228   -1.248571
    139          8           0       -7.444241    1.022384   -2.105327
    140          8           0       -8.734831   -3.587038   -2.372512
    141          1           0       -6.226896   -4.034923   -1.433861
    142          8           0        0.175693    8.504853   -0.030988
    143          6           0       -0.107205    9.778960    0.544190
    144          8           0       -9.389781   -0.970459   -2.723370
    145          6           0       -9.776967   -1.386131   -4.036746
    146          8           0        1.648197   -7.082258   -2.769535
    147          6           0        2.076406   -8.446380   -2.802479
    148          8           0        8.407985    1.034281   -4.761755
    149          6           0        9.633221    0.653342   -4.139421
    150          1           0        0.563179   10.492092    0.057029
    151          1           0        0.087774    9.778384    1.624058
    152          1           0       -1.147495   10.075261    0.358166
    153          1           0       10.330447    0.422359   -4.949150
    154          1           0        9.499184   -0.237262   -3.512044
    155          1           0       10.041466    1.471963   -3.533077
    156          1           0        3.161834   -8.525772   -2.702432
    157          1           0        1.591307   -9.031996   -2.009339
    158          1           0        1.768259   -8.834342   -3.776585
    159          1           0       -9.096981   -0.976121   -4.795785
    160          1           0      -10.780085   -0.982473   -4.195593
    161          1           0       -9.801772   -2.475571   -4.118897
    162          6           0        8.040945    4.929167   -3.525919
    163          6           0        5.540073   -6.209097   -1.745486
    164          6           0       -8.472633   -4.951442   -2.083343
    165          6           0       -3.355156    7.564659   -1.894517
    166          1           0        6.140608   -6.685544   -2.522684
    167          1           0        5.702147   -5.123661   -1.775506
    168          1           0        5.846760   -6.590274   -0.762764
    169          1           0        8.883127    5.446561   -3.989602
    170          1           0        8.089101    5.059057   -2.436552
    171          1           0        7.102111    5.360929   -3.896736
    172          1           0       -3.458780    8.313156   -2.682721
    173          1           0       -4.230176    7.610046   -1.232498
    174          1           0       -3.301768    6.566261   -2.348466
    175          1           0       -8.243118   -5.099062   -1.020441
    176          1           0       -7.643229   -5.341827   -2.687689
    177          1           0       -9.387941   -5.490004   -2.336160
    178          6           0        5.811179   -1.905459   -3.571162
    179          6           0       -0.966989   -7.263326   -1.749002
    180          6           0       -8.065903    1.533997   -3.284573
    181          6           0        1.464675    6.538720    3.341749
    182          1           0       -2.044893   -7.279532   -1.570028
    183          1           0       -0.517172   -8.161017   -1.307074
    184          1           0       -0.764587   -7.244619   -2.821370
    185          1           0       -7.850470    2.605587   -3.290997
    186          1           0       -9.146090    1.372371   -3.273313
    187          1           0       -7.635384    1.076723   -4.184616
    188          1           0        2.407328    7.021024    3.601629
    189          1           0        1.649744    5.470906    3.173980
    190          1           0        0.738877    6.659283    4.156963
    191          1           0        6.168933   -2.807148   -4.072461
    192          1           0        4.803489   -1.664967   -3.933406
    193          1           0        5.767130   -2.085475   -2.488024
 ---------------------------------------------------------------------
 Rotational constants (GHZ):      0.0132725      0.0114051      0.0078445
 Leave Link  202 at Tue Feb  3 01:19:21 2015, MaxMem= 2147483648 cpu:       0.1
 (Enter /opt/g09/l301.exe)
 Standard basis: CC-pVDZ (5D, 7F)
 Ernie: Thresh=  0.10000D-02 Tol=  0.10000D-05 Strict=F.
 Ernie:  218 primitive shells out of 2818 were deleted.
 There are  1946 symmetry adapted basis functions of A   symmetry.
 Integral buffers will be    131072 words long.
 Raffenetti 2 integral format.
 Two-electron integral symmetry is turned on.
  1946 basis functions,  4185 primitive gaussians,  2055 cartesian basis functions
   387 alpha electrons      387 beta electrons
       nuclear repulsion energy     22226.5479431328 Hartrees.
 IExCor=  402 DFT=T Ex+Corr=B3LYP ExCW=0 ScaHFX=  0.200000
 ScaDFX=  0.800000  0.720000  1.000000  0.810000 ScalE2=  1.000000  1.000000
 IRadAn=      0 IRanWt=     -1 IRanGd=            0 ICorTp=0
 NAtoms=  193 NActive=  193 NUniq=  193 SFac= 7.50D-01 NAtFMM=   80 NAOKFM=T Big=T
 Leave Link  301 at Tue Feb  3 01:19:21 2015, MaxMem= 2147483648 cpu:       1.9
 (Enter /opt/g09/l302.exe)
 NPDir=0 NMtPBC=     1 NCelOv=     1 NCel=       1 NClECP=     1 NCelD=      1
         NCelK=      1 NCelE2=     1 NClLst=     1 CellRange=     0.0.
 One-electron integrals computed using PRISM.
 NBasis=  1946 RedAO= T  NBF=  1946
 NBsUse=  1946 1.00D-06 NBFU=  1946
 Precomputing XC quadrature grid using
 IXCGrd= 2 IRadAn=           0 IRanWt=          -1 IRanGd=           0 AccXCQ= 1.00D-10.
 NRdTot=   12662 NPtTot=     1623570 NUsed=     1714726 NTot=     1714758
 NSgBfM=  1287  1310  1326  1338  1341 NAtAll=   193   186.
 Leave Link  302 at Tue Feb  3 01:19:55 2015, MaxMem= 2147483648 cpu:     821.4
 (Enter /opt/g09/l303.exe)
 DipDrv:  MaxL=1.
 Leave Link  303 at Tue Feb  3 01:19:58 2015, MaxMem= 2147483648 cpu:      50.2
 (Enter /opt/g09/l401.exe)
 Harris functional with IExCor=  402 diagonalized for initial guess.
 ExpMin= 1.22D-01 ExpMax= 1.17D+04 ExpMxC= 4.01D+02 IAcc=1 IRadAn=         1 AccDes= 0.00D+00
 HarFok:  IExCor=  402 AccDes= 0.00D+00 IRadAn=         1 IDoV= 1
 ScaDFX=  1.000000  1.000000  1.000000  1.000000
 FoFCou: FMM=F IPFlag=           0 FMFlag=      100000 FMFlg1=        2001
         NFxFlg=           0 DoJE=T BraDBF=F KetDBF=T FulRan=T
         Omega=  0.000000  0.000000  1.000000  0.000000  0.000000 ICntrl=     500 IOpCl=  0
         NMat0=    1 NMatS0=    1 NMatT0=    0 NMatD0=    1 NMtDS0=    0 NMtDT0=    0
         I1Cent=           4 NGrid=           0.
 Petite list used in FoFCou.
 Harris En= -4864.80969026138    
 Initial guess orbital symmetries:
       Occupied  (A) (A) (A) (A) (A) (A) (A) (A) (A) (A) (A) (A)
                 (A) (A) (A) (A) (A) (A) (A) (A) (A) (A) (A) (A)
                 (A) (A) (A) (A) (A) (A) (A) (A) (A) (A) (A) (A)
                 (A) (A) (A) (A) (A) (A) (A) (A) (A) (A) (A) (A)
                 (A) (A) (A) (A) (A) (A) (A) (A) (A) (A) (A) (A)
                 (A) (A) (A) (A) (A) (A) (A) (A) (A) (A) (A) (A)
                 (A) (A) (A) (A) (A) (A) (A) (A) (A) (A) (A) (A)
                 (A) (A) (A) (A) (A) (A) (A) (A) (A) (A) (A) (A)
                 (A) (A) (A) (A) (A) (A) (A) (A) (A) (A) (A) (A)
                 (A) (A) (A) (A) (A) (A) (A) (A) (A) (A) (A) (A)
                 (A) (A) (A) (A) (A) (A) (A) (A) (A) (A) (A) (A)
                 (A) (A) (A) (A) (A) (A) (A) (A) (A) (A) (A) (A)
                 (A) (A) (A) (A) (A) (A) (A) (A) (A) (A) (A) (A)
                 (A) (A) (A) (A) (A) (A) (A) (A) (A) (A) (A) (A)
                 (A) (A) (A) (A) (A) (A) (A) (A) (A) (A) (A) (A)
                 (A) (A) (A) (A) (A) (A) (A) (A) (A) (A) (A) (A)
                 (A) (A) (A) (A) (A) (A) (A) (A) (A) (A) (A) (A)
                 (A) (A) (A) (A) (A) (A) (A) (A) (A) (A) (A) (A)
                 (A) (A) (A) (A) (A) (A) (A) (A) (A) (A) (A) (A)
                 (A) (A) (A) (A) (A) (A) (A) (A) (A) (A) (A) (A)
                 (A) (A) (A) (A) (A) (A) (A) (A) (A) (A) (A) (A)
                 (A) (A) (A) (A) (A) (A) (A) (A) (A) (A) (A) (A)
                 (A) (A) (A) (A) (A) (A) (A) (A) (A) (A) (A) (A)
                 (A) (A) (A) (A) (A) (A) (A) (A) (A) (A) (A) (A)
                 (A) (A) (A) (A) (A) (A) (A) (A) (A) (A) (A) (A)
                 (A) (A) (A) (A) (A) (A) (A) (A) (A) (A) (A) (A)
                 (A) (A) (A) (A) (A) (A) (A) (A) (A) (A) (A) (A)
                 (A) (A) (A) (A) (A) (A) (A) (A) (A) (A) (A) (A)
                 (A) (A) (A) (A) (A) (A) (A) (A) (A) (A) (A) (A)
                 (A) (A) (A) (A) (A) (A) (A) (A) (A) (A) (A) (A)
                 (A) (A) (A) (A) (A) (A) (A) (A) (A) (A) (A) (A)
                 (A) (A) (A) (A) (A) (A) (A) (A) (A) (A) (A) (A)
                 (A) (A) (A)
       Virtual   (A) (A) (A) (A) (A) (A) (A) (A) (A) (A) (A) (A)
                 (A) (A) (A) (A) (A) (A) (A) (A) (A) (A) (A) (A)
                 (A) (A) (A) (A) (A) (A) (A) (A) (A) (A) (A) (A)
                 (A) (A) (A) (A) (A) (A) (A) (A) (A) (A) (A) (A)
                 (A) (A) (A) (A) (A) (A) (A) (A) (A) (A) (A) (A)
                 (A) (A) (A) (A) (A) (A) (A) (A) (A) (A) (A) (A)
                 (A) (A) (A) (A) (A) (A) (A) (A) (A) (A) (A) (A)
                 (A) (A) (A) (A) (A) (A) (A) (A) (A) (A) (A) (A)
                 (A) (A) (A) (A) (A) (A) (A) (A) (A) (A) (A) (A)
                 (A) (A) (A) (A) (A) (A) (A) (A) (A) (A) (A) (A)
                 (A) (A) (A) (A) (A) (A) (A) (A) (A) (A) (A) (A)
                 (A) (A) (A) (A) (A) (A) (A) (A) (A) (A) (A) (A)
                 (A) (A) (A) (A) (A) (A) (A) (A) (A) (A) (A) (A)
                 (A) (A) (A) (A) (A) (A) (A) (A) (A) (A) (A) (A)
                 (A) (A) (A) (A) (A) (A) (A) (A) (A) (A) (A) (A)
                 (A) (A) (A) (A) (A) (A) (A) (A) (A) (A) (A) (A)
                 (A) (A) (A) (A) (A) (A) (A) (A) (A) (A) (A) (A)
                 (A) (A) (A) (A) (A) (A) (A) (A) (A) (A) (A) (A)
                 (A) (A) (A) (A) (A) (A) (A) (A) (A) (A) (A) (A)
                 (A) (A) (A) (A) (A) (A) (A) (A) (A) (A) (A) (A)
                 (A) (A) (A) (A) (A) (A) (A) (A) (A) (A) (A) (A)
                 (A) (A) (A) (A) (A) (A) (A) (A) (A) (A) (A) (A)
                 (A) (A) (A) (A) (A) (A) (A) (A) (A) (A) (A) (A)
                 (A) (A) (A) (A) (A) (A) (A) (A) (A) (A) (A) (A)
                 (A) (A) (A) (A) (A) (A) (A) (A) (A) (A) (A) (A)
                 (A) (A) (A) (A) (A) (A) (A) (A) (A) (A) (A) (A)
                 (A) (A) (A) (A) (A) (A) (A) (A) (A) (A) (A) (A)
                 (A) (A) (A) (A) (A) (A) (A) (A) (A) (A) (A) (A)
                 (A) (A) (A) (A) (A) (A) (A) (A) (A) (A) (A) (A)
                 (A) (A) (A) (A) (A) (A) (A) (A) (A) (A) (A) (A)
                 (A) (A) (A) (A) (A) (A) (A) (A) (A) (A) (A) (A)
                 (A) (A) (A) (A) (A) (A) (A) (A) (A) (A) (A) (A)
                 (A) (A) (A) (A) (A) (A) (A) (A) (A) (A) (A) (A)
                 (A) (A) (A) (A) (A) (A) (A) (A) (A) (A) (A) (A)
                 (A) (A) (A) (A) (A) (A) (A) (A) (A) (A) (A) (A)
                 (A) (A) (A) (A) (A) (A) (A) (A) (A) (A) (A) (A)
                 (A) (A) (A) (A) (A) (A) (A) (A) (A) (A) (A) (A)
                 (A) (A) (A) (A) (A) (A) (A) (A) (A) (A) (A) (A)
                 (A) (A) (A) (A) (A) (A) (A) (A) (A) (A) (A) (A)
                 (A) (A) (A) (A) (A) (A) (A) (A) (A) (A) (A) (A)
                 (A) (A) (A) (A) (A) (A) (A) (A) (A) (A) (A) (A)
                 (A) (A) (A) (A) (A) (A) (A) (A) (A) (A) (A) (A)
                 (A) (A) (A) (A) (A) (A) (A) (A) (A) (A) (A) (A)
                 (A) (A) (A) (A) (A) (A) (A) (A) (A) (A) (A) (A)
                 (A) (A) (A) (A) (A) (A) (A) (A) (A) (A) (A) (A)
                 (A) (A) (A) (A) (A) (A) (A) (A) (A) (A) (A) (A)
                 (A) (A) (A) (A) (A) (A) (A) (A) (A) (A) (A) (A)
                 (A) (A) (A) (A) (A) (A) (A) (A) (A) (A) (A) (A)
                 (A) (A) (A) (A) (A) (A) (A) (A) (A) (A) (A) (A)
                 (A) (A) (A) (A) (A) (A) (A) (A) (A) (A) (A) (A)
                 (A) (A) (A) (A) (A) (A) (A) (A) (A) (A) (A) (A)
                 (A) (A) (A) (A) (A) (A) (A) (A) (A) (A) (A) (A)
                 (A) (A) (A) (A) (A) (A) (A) (A) (A) (A) (A) (A)
                 (A) (A) (A) (A) (A) (A) (A) (A) (A) (A) (A) (A)
                 (A) (A) (A) (A) (A) (A) (A) (A) (A) (A) (A) (A)
                 (A) (A) (A) (A) (A) (A) (A) (A) (A) (A) (A) (A)
                 (A) (A) (A) (A) (A) (A) (A) (A) (A) (A) (A) (A)
                 (A) (A) (A) (A) (A) (A) (A) (A) (A) (A) (A) (A)
                 (A) (A) (A) (A) (A) (A) (A) (A) (A) (A) (A) (A)
                 (A) (A) (A) (A) (A) (A) (A) (A) (A) (A) (A) (A)
                 (A) (A) (A) (A) (A) (A) (A) (A) (A) (A) (A) (A)
                 (A) (A) (A) (A) (A) (A) (A) (A) (A) (A) (A) (A)
                 (A) (A) (A) (A) (A) (A) (A) (A) (A) (A) (A) (A)
                 (A) (A) (A) (A) (A) (A) (A) (A) (A) (A) (A) (A)
                 (A) (A) (A) (A) (A) (A) (A) (A) (A) (A) (A) (A)
                 (A) (A) (A) (A) (A) (A) (A) (A) (A) (A) (A) (A)
                 (A) (A) (A) (A) (A) (A) (A) (A) (A) (A) (A) (A)
                 (A) (A) (A) (A) (A) (A) (A) (A) (A) (A) (A) (A)
                 (A) (A) (A) (A) (A) (A) (A) (A) (A) (A) (A) (A)
                 (A) (A) (A) (A) (A) (A) (A) (A) (A) (A) (A) (A)
                 (A) (A) (A) (A) (A) (A) (A) (A) (A) (A) (A) (A)
                 (A) (A) (A) (A) (A) (A) (A) (A) (A) (A) (A) (A)
                 (A) (A) (A) (A) (A) (A) (A) (A) (A) (A) (A) (A)
                 (A) (A) (A) (A) (A) (A) (A) (A) (A) (A) (A) (A)
                 (A) (A) (A) (A) (A) (A) (A) (A) (A) (A) (A) (A)
                 (A) (A) (A) (A) (A) (A) (A) (A) (A) (A) (A) (A)
                 (A) (A) (A) (A) (A) (A) (A) (A) (A) (A) (A) (A)
                 (A) (A) (A) (A) (A) (A) (A) (A) (A) (A) (A) (A)
                 (A) (A) (A) (A) (A) (A) (A) (A) (A) (A) (A) (A)
                 (A) (A) (A) (A) (A) (A) (A) (A) (A) (A) (A) (A)
                 (A) (A) (A) (A) (A) (A) (A) (A) (A) (A) (A) (A)
                 (A) (A) (A) (A) (A) (A) (A) (A) (A) (A) (A) (A)
                 (A) (A) (A) (A) (A) (A) (A) (A) (A) (A) (A) (A)
                 (A) (A) (A) (A) (A) (A) (A) (A) (A) (A) (A) (A)
                 (A) (A) (A) (A) (A) (A) (A) (A) (A) (A) (A) (A)
                 (A) (A) (A) (A) (A) (A) (A) (A) (A) (A) (A) (A)
                 (A) (A) (A) (A) (A) (A) (A) (A) (A) (A) (A) (A)
                 (A) (A) (A) (A) (A) (A) (A) (A) (A) (A) (A) (A)
                 (A) (A) (A) (A) (A) (A) (A) (A) (A) (A) (A) (A)
                 (A) (A) (A) (A) (A) (A) (A) (A) (A) (A) (A) (A)
                 (A) (A) (A) (A) (A) (A) (A) (A) (A) (A) (A) (A)
                 (A) (A) (A) (A) (A) (A) (A) (A) (A) (A) (A) (A)
                 (A) (A) (A) (A) (A) (A) (A) (A) (A) (A) (A) (A)
                 (A) (A) (A) (A) (A) (A) (A) (A) (A) (A) (A) (A)
                 (A) (A) (A) (A) (A) (A) (A) (A) (A) (A) (A) (A)
                 (A) (A) (A) (A) (A) (A) (A) (A) (A) (A) (A) (A)
                 (A) (A) (A) (A) (A) (A) (A) (A) (A) (A) (A) (A)
                 (A) (A) (A) (A) (A) (A) (A) (A) (A) (A) (A) (A)
                 (A) (A) (A) (A) (A) (A) (A) (A) (A) (A) (A) (A)
                 (A) (A) (A) (A) (A) (A) (A) (A) (A) (A) (A) (A)
                 (A) (A) (A) (A) (A) (A) (A) (A) (A) (A) (A) (A)
                 (A) (A) (A) (A) (A) (A) (A) (A) (A) (A) (A) (A)
                 (A) (A) (A) (A) (A) (A) (A) (A) (A) (A) (A) (A)
                 (A) (A) (A) (A) (A) (A) (A) (A) (A) (A) (A) (A)
                 (A) (A) (A) (A) (A) (A) (A) (A) (A) (A) (A) (A)
                 (A) (A) (A) (A) (A) (A) (A) (A) (A) (A) (A) (A)
                 (A) (A) (A) (A) (A) (A) (A) (A) (A) (A) (A) (A)
                 (A) (A) (A) (A) (A) (A) (A) (A) (A) (A) (A) (A)
                 (A) (A) (A) (A) (A) (A) (A) (A) (A) (A) (A) (A)
                 (A) (A) (A) (A) (A) (A) (A) (A) (A) (A) (A) (A)
                 (A) (A) (A) (A) (A) (A) (A) (A) (A) (A) (A) (A)
                 (A) (A) (A) (A) (A) (A) (A) (A) (A) (A) (A) (A)
                 (A) (A) (A) (A) (A) (A) (A) (A) (A) (A) (A) (A)
                 (A) (A) (A) (A) (A) (A) (A) (A) (A) (A) (A) (A)
                 (A) (A) (A) (A) (A) (A) (A) (A) (A) (A) (A) (A)
                 (A) (A) (A) (A) (A) (A) (A) (A) (A) (A) (A) (A)
                 (A) (A) (A) (A) (A) (A) (A) (A) (A) (A) (A) (A)
                 (A) (A) (A) (A) (A) (A) (A) (A) (A) (A) (A) (A)
                 (A) (A) (A) (A) (A) (A) (A) (A) (A) (A) (A) (A)
                 (A) (A) (A) (A) (A) (A) (A) (A) (A) (A) (A) (A)
                 (A) (A) (A) (A) (A) (A) (A) (A) (A) (A) (A) (A)
                 (A) (A) (A) (A) (A) (A) (A) (A) (A) (A) (A) (A)
                 (A) (A) (A) (A) (A) (A) (A) (A) (A) (A) (A) (A)
                 (A) (A) (A) (A) (A) (A) (A) (A) (A) (A) (A) (A)
                 (A) (A) (A) (A) (A) (A) (A) (A) (A) (A) (A) (A)
                 (A) (A) (A) (A) (A) (A) (A) (A) (A) (A) (A) (A)
                 (A) (A) (A) (A) (A) (A) (A) (A) (A) (A) (A) (A)
                 (A) (A) (A) (A) (A) (A) (A) (A) (A) (A) (A) (A)
                 (A) (A) (A) (A) (A) (A) (A) (A) (A) (A) (A) (A)
                 (A) (A) (A) (A) (A) (A) (A) (A) (A) (A) (A)
 The electronic state of the initial guess is 1-A.
 Leave Link  401 at Tue Feb  3 01:20:29 2015, MaxMem= 2147483648 cpu:     740.3
 (Enter /opt/g09/l502.exe)
 Closed shell SCF:
 Requested convergence on RMS density matrix=1.00D-08 within 128 cycles.
 Requested convergence on MAX density matrix=1.00D-06.
 Requested convergence on             energy=1.00D-06.
 No special actions if energy rises.
 Using DIIS extrapolation, IDIIS=  1040.
 Integral symmetry usage will be decided dynamically.
      1712976 words used for storage of precomputed grid.
 IEnd=    14465085 IEndB=    14465085 NGot=  2147483648 MDV=  2137260284
 LenX=  2137260284 LenY=  2133035204
 Fock matrices will be formed incrementally for  20 cycles.
 Integral accuracy reduced to 1.0D-05 until final iterations.

 Cycle   1  Pass 0  IDiag  1:
 FoFCou: FMM=T IPFlag=           0 FMFlag=      100000 FMFlg1=        2001
         NFxFlg=           0 DoJE=F BraDBF=F KetDBF=F FulRan=T
         Omega=  0.000000  0.000000  1.000000  0.000000  0.000000 ICntrl=       0 IOpCl=  0
         NMat0=    1 NMatS0=    1 NMatT0=    0 NMatD0=    1 NMtDS0=    0 NMtDT0=    0
         I1Cent=           0 NGrid=           0.
 Symmetry not used in FoFCou.
 FMM levels:  10  Number of levels for PrismC:   9
 E= -4862.70397360443    
 DIIS: error= 1.57D-02 at cycle   1 NSaved=   1.
 NSaved= 1 IEnMin= 1 EnMin= -4862.70397360443     IErMin= 1 ErrMin= 1.57D-02
 ErrMax= 1.57D-02 EMaxC= 1.00D-01 BMatC= 1.79D+00 BMatP= 1.79D+00
 IDIUse=3 WtCom= 8.43D-01 WtEn= 1.57D-01
 Coeff-Com:  0.100D+01
 Coeff-En:   0.100D+01
 Coeff:      0.100D+01
 Gap=     0.147 Goal=   None    Shift=    0.000
 GapD=    0.147 DampG=1.000 DampE=0.500 DampFc=0.5000 IDamp=-1.
 Damping current iteration by 5.00D-01
 RMSDP=1.94D-03 MaxDP=1.77D-01              OVMax= 2.06D-01

 Cycle   2  Pass 0  IDiag  1:
 RMSU=  6.60D-04    CP:  9.67D-01
 E= -4863.65367823920     Delta-E=       -0.949704634768 Rises=F Damp=T
 DIIS: error= 3.41D-03 at cycle   2 NSaved=   2.
 NSaved= 2 IEnMin= 2 EnMin= -4863.65367823920     IErMin= 2 ErrMin= 3.41D-03
 ErrMax= 3.41D-03 EMaxC= 1.00D-01 BMatC= 9.51D-02 BMatP= 1.79D+00
 IDIUse=3 WtCom= 9.66D-01 WtEn= 3.41D-02
 Coeff-Com:  0.128D-01 0.987D+00
 Coeff-En:   0.000D+00 0.100D+01
 Coeff:      0.124D-01 0.988D+00
 Gap=     0.138 Goal=   None    Shift=    0.000
 RMSDP=5.66D-04 MaxDP=9.87D-02 DE=-9.50D-01 OVMax= 1.39D-01

 Cycle   3  Pass 0  IDiag  1:
 RMSU=  3.56D-04    CP:  9.46D-01  1.22D+00
 E= -4864.61060884181     Delta-E=       -0.956930602606 Rises=F Damp=F
 DIIS: error= 3.65D-03 at cycle   3 NSaved=   3.
 NSaved= 3 IEnMin= 3 EnMin= -4864.61060884181     IErMin= 2 ErrMin= 3.41D-03
 ErrMax= 3.65D-03 EMaxC= 1.00D-01 BMatC= 8.22D-02 BMatP= 9.51D-02
 IDIUse=3 WtCom= 9.64D-01 WtEn= 3.65D-02
 Coeff-Com: -0.371D-01 0.495D+00 0.542D+00
 Coeff-En:   0.000D+00 0.000D+00 0.100D+01
 Coeff:     -0.358D-01 0.477D+00 0.559D+00
 Gap=     0.135 Goal=   None    Shift=    0.000
 RMSDP=2.26D-04 MaxDP=2.71D-02 DE=-9.57D-01 OVMax= 5.23D-02

 Cycle   4  Pass 0  IDiag  1:
 RMSU=  1.22D-04    CP:  9.48D-01  1.22D+00  7.11D-01
 E= -4864.67472403797     Delta-E=       -0.064115196168 Rises=F Damp=F
 DIIS: error= 1.31D-03 at cycle   4 NSaved=   4.
 NSaved= 4 IEnMin= 4 EnMin= -4864.67472403797     IErMin= 4 ErrMin= 1.31D-03
 ErrMax= 1.31D-03 EMaxC= 1.00D-01 BMatC= 1.53D-02 BMatP= 8.22D-02
 IDIUse=3 WtCom= 9.87D-01 WtEn= 1.31D-02
 Coeff-Com: -0.186D-01 0.133D+00 0.327D+00 0.558D+00
 Coeff-En:   0.000D+00 0.000D+00 0.168D+00 0.832D+00
 Coeff:     -0.184D-01 0.131D+00 0.325D+00 0.562D+00
 Gap=     0.128 Goal=   None    Shift=    0.000
 RMSDP=9.01D-05 MaxDP=1.07D-02 DE=-6.41D-02 OVMax= 2.75D-02

 Cycle   5  Pass 0  IDiag  1:
 RMSU=  3.34D-05    CP:  9.48D-01  1.22D+00  7.67D-01  5.87D-01
 E= -4864.68834258535     Delta-E=       -0.013618547375 Rises=F Damp=F
 DIIS: error= 4.91D-04 at cycle   5 NSaved=   5.
 NSaved= 5 IEnMin= 5 EnMin= -4864.68834258535     IErMin= 5 ErrMin= 4.91D-04
 ErrMax= 4.91D-04 EMaxC= 1.00D-01 BMatC= 1.59D-03 BMatP= 1.53D-02
 IDIUse=3 WtCom= 9.95D-01 WtEn= 4.91D-03
 Coeff-Com: -0.794D-02 0.421D-01 0.157D+00 0.338D+00 0.471D+00
 Coeff-En:   0.000D+00 0.000D+00 0.000D+00 0.314D-01 0.969D+00
 Coeff:     -0.791D-02 0.419D-01 0.156D+00 0.336D+00 0.474D+00
 Gap=     0.128 Goal=   None    Shift=    0.000
 RMSDP=3.36D-05 MaxDP=4.41D-03 DE=-1.36D-02 OVMax= 1.16D-02

 Cycle   6  Pass 0  IDiag  1:
 RMSU=  1.55D-05    CP:  9.48D-01  1.22D+00  7.66D-01  6.38D-01  5.02D-01
 E= -4864.68977918151     Delta-E=       -0.001436596162 Rises=F Damp=F
 DIIS: error= 2.74D-04 at cycle   6 NSaved=   6.
 NSaved= 6 IEnMin= 6 EnMin= -4864.68977918151     IErMin= 6 ErrMin= 2.74D-04
 ErrMax= 2.74D-04 EMaxC= 1.00D-01 BMatC= 2.99D-04 BMatP= 1.59D-03
 IDIUse=3 WtCom= 9.97D-01 WtEn= 2.74D-03
 Coeff-Com: -0.188D-02 0.418D-02 0.466D-01 0.123D+00 0.323D+00 0.505D+00
 Coeff-En:   0.000D+00 0.000D+00 0.000D+00 0.000D+00 0.188D+00 0.812D+00
 Coeff:     -0.188D-02 0.417D-02 0.465D-01 0.123D+00 0.322D+00 0.506D+00
 Gap=     0.128 Goal=   None    Shift=    0.000
 RMSDP=1.35D-05 MaxDP=1.83D-03 DE=-1.44D-03 OVMax= 4.93D-03

 Cycle   7  Pass 0  IDiag  1:
 RMSU=  5.46D-06    CP:  9.48D-01  1.22D+00  7.71D-01  6.33D-01  6.23D-01
                    CP:  5.89D-01
 E= -4864.69010083624     Delta-E=       -0.000321654727 Rises=F Damp=F
 DIIS: error= 9.55D-05 at cycle   7 NSaved=   7.
 NSaved= 7 IEnMin= 7 EnMin= -4864.69010083624     IErMin= 7 ErrMin= 9.55D-05
 ErrMax= 9.55D-05 EMaxC= 1.00D-01 BMatC= 3.63D-05 BMatP= 2.99D-04
 IDIUse=1 WtCom= 1.00D+00 WtEn= 0.00D+00
 Coeff-Com: -0.647D-03-0.330D-03 0.193D-01 0.564D-01 0.181D+00 0.341D+00
 Coeff-Com:  0.403D+00
 Coeff:     -0.647D-03-0.330D-03 0.193D-01 0.564D-01 0.181D+00 0.341D+00
 Coeff:      0.403D+00
 Gap=     0.128 Goal=   None    Shift=    0.000
 RMSDP=4.95D-06 MaxDP=4.59D-04 DE=-3.22D-04 OVMax= 1.49D-03

 Initial convergence to 1.0D-05 achieved.  Increase integral accuracy.
 Cycle   8  Pass 1  IDiag  1:
 E= -4864.69066335030     Delta-E=       -0.000562514058 Rises=F Damp=F
 DIIS: error= 3.31D-04 at cycle   1 NSaved=   1.
 NSaved= 1 IEnMin= 1 EnMin= -4864.69066335030     IErMin= 1 ErrMin= 3.31D-04
 ErrMax= 3.31D-04 EMaxC= 1.00D-01 BMatC= 1.42D-04 BMatP= 1.42D-04
 IDIUse=3 WtCom= 9.97D-01 WtEn= 3.31D-03
 Coeff-Com:  0.100D+01
 Coeff-En:   0.100D+01
 Coeff:      0.100D+01
 Gap=     0.128 Goal=   None    Shift=    0.000
 RMSDP=4.95D-06 MaxDP=4.59D-04 DE=-5.63D-04 OVMax= 1.21D-03

 Cycle   9  Pass 1  IDiag  1:
 RMSU=  1.18D-04    CP:  9.99D-01
 E= -4864.69078700922     Delta-E=       -0.000123658923 Rises=F Damp=F
 DIIS: error= 3.61D-05 at cycle   2 NSaved=   2.
 NSaved= 2 IEnMin= 2 EnMin= -4864.69078700922     IErMin= 2 ErrMin= 3.61D-05
 ErrMax= 3.61D-05 EMaxC= 1.00D-01 BMatC= 8.02D-06 BMatP= 1.42D-04
 IDIUse=1 WtCom= 1.00D+00 WtEn= 0.00D+00
 Coeff-Com:  0.671D-01 0.933D+00
 Coeff:      0.671D-01 0.933D+00
 Gap=     0.128 Goal=   None    Shift=    0.000
 RMSDP=5.85D-06 MaxDP=8.46D-04 DE=-1.24D-04 OVMax= 1.79D-03

 Cycle  10  Pass 1  IDiag  1:
 RMSU=  3.97D-06    CP:  9.99D-01  1.01D+00
 E= -4864.69075435271     Delta-E=        0.000032656510 Rises=F Damp=F
 DIIS: error= 8.82D-05 at cycle   3 NSaved=   3.
 NSaved= 3 IEnMin= 2 EnMin= -4864.69078700922     IErMin= 2 ErrMin= 3.61D-05
 ErrMax= 8.82D-05 EMaxC= 1.00D-01 BMatC= 3.79D-05 BMatP= 8.02D-06
 IDIUse=1 WtCom= 1.00D+00 WtEn= 0.00D+00
 Coeff-Com: -0.400D-02 0.689D+00 0.315D+00
 Coeff:     -0.400D-02 0.689D+00 0.315D+00
 Gap=     0.128 Goal=   None    Shift=    0.000
 RMSDP=3.96D-06 MaxDP=4.80D-04 DE= 3.27D-05 OVMax= 1.31D-03

 Cycle  11  Pass 1  IDiag  1:
 RMSU=  5.21D-07    CP:  9.99D-01  1.01D+00  3.08D-01
 E= -4864.69079504777     Delta-E=       -0.000040695064 Rises=F Damp=F
 DIIS: error= 1.13D-05 at cycle   4 NSaved=   4.
 NSaved= 4 IEnMin= 4 EnMin= -4864.69079504777     IErMin= 4 ErrMin= 1.13D-05
 ErrMax= 1.13D-05 EMaxC= 1.00D-01 BMatC= 4.54D-07 BMatP= 8.02D-06
 IDIUse=1 WtCom= 1.00D+00 WtEn= 0.00D+00
 Coeff-Com: -0.387D-02 0.441D+00 0.210D+00 0.353D+00
 Coeff:     -0.387D-02 0.441D+00 0.210D+00 0.353D+00
 Gap=     0.128 Goal=   None    Shift=    0.000
 RMSDP=4.13D-07 MaxDP=4.57D-05 DE=-4.07D-05 OVMax= 1.34D-04

 Cycle  12  Pass 1  IDiag  1:
 RMSU=  1.75D-07    CP:  9.99D-01  1.01D+00  3.27D-01  5.75D-01
 E= -4864.69079551483     Delta-E=       -0.000000467055 Rises=F Damp=F
 DIIS: error= 1.47D-06 at cycle   5 NSaved=   5.
 NSaved= 5 IEnMin= 5 EnMin= -4864.69079551483     IErMin= 5 ErrMin= 1.47D-06
 ErrMax= 1.47D-06 EMaxC= 1.00D-01 BMatC= 9.48D-09 BMatP= 4.54D-07
 IDIUse=1 WtCom= 1.00D+00 WtEn= 0.00D+00
 Coeff-Com: -0.191D-02 0.207D+00 0.990D-01 0.197D+00 0.499D+00
 Coeff:     -0.191D-02 0.207D+00 0.990D-01 0.197D+00 0.499D+00
 Gap=     0.128 Goal=   None    Shift=    0.000
 RMSDP=7.71D-08 MaxDP=1.02D-05 DE=-4.67D-07 OVMax= 2.07D-05

 Cycle  13  Pass 1  IDiag  1:
 RMSU=  4.26D-08    CP:  9.99D-01  1.01D+00  3.26D-01  6.09D-01  8.34D-01
 E= -4864.69079552440     Delta-E=       -0.000000009572 Rises=F Damp=F
 DIIS: error= 4.58D-07 at cycle   6 NSaved=   6.
 NSaved= 6 IEnMin= 6 EnMin= -4864.69079552440     IErMin= 6 ErrMin= 4.58D-07
 ErrMax= 4.58D-07 EMaxC= 1.00D-01 BMatC= 1.16D-09 BMatP= 9.48D-09
 IDIUse=1 WtCom= 1.00D+00 WtEn= 0.00D+00
 Coeff-Com: -0.502D-03 0.511D-01 0.246D-01 0.598D-01 0.286D+00 0.579D+00
 Coeff:     -0.502D-03 0.511D-01 0.246D-01 0.598D-01 0.286D+00 0.579D+00
 Gap=     0.128 Goal=   None    Shift=    0.000
 RMSDP=2.72D-08 MaxDP=3.65D-06 DE=-9.57D-09 OVMax= 7.77D-06

 Cycle  14  Pass 1  IDiag  1:
 RMSU=  1.48D-08    CP:  9.99D-01  1.01D+00  3.26D-01  6.10D-01  8.73D-01
                    CP:  7.63D-01
 E= -4864.69079552442     Delta-E=       -0.000000000018 Rises=F Damp=F
 DIIS: error= 2.22D-07 at cycle   7 NSaved=   7.
 NSaved= 7 IEnMin= 7 EnMin= -4864.69079552442     IErMin= 7 ErrMin= 2.22D-07
 ErrMax= 2.22D-07 EMaxC= 1.00D-01 BMatC= 2.26D-10 BMatP= 1.16D-09
 IDIUse=1 WtCom= 1.00D+00 WtEn= 0.00D+00
 Coeff-Com: -0.746D-04 0.595D-02 0.292D-02 0.128D-01 0.118D+00 0.368D+00
 Coeff-Com:  0.493D+00
 Coeff:     -0.746D-04 0.595D-02 0.292D-02 0.128D-01 0.118D+00 0.368D+00
 Coeff:      0.493D+00
 Gap=     0.128 Goal=   None    Shift=    0.000
 RMSDP=1.21D-08 MaxDP=1.22D-06 DE=-1.82D-11 OVMax= 4.25D-06

 Cycle  15  Pass 1  IDiag  1:
 RMSU=  5.51D-09    CP:  9.99D-01  1.01D+00  3.26D-01  6.11D-01  8.75D-01
                    CP:  8.12D-01  5.85D-01
 E= -4864.69079552504     Delta-E=       -0.000000000622 Rises=F Damp=F
 DIIS: error= 9.08D-08 at cycle   8 NSaved=   8.
 NSaved= 8 IEnMin= 8 EnMin= -4864.69079552504     IErMin= 8 ErrMin= 9.08D-08
 ErrMax= 9.08D-08 EMaxC= 1.00D-01 BMatC= 3.89D-11 BMatP= 2.26D-10
 IDIUse=1 WtCom= 1.00D+00 WtEn= 0.00D+00
 Coeff-Com:  0.142D-04-0.258D-02-0.122D-02 0.934D-03 0.423D-01 0.175D+00
 Coeff-Com:  0.335D+00 0.450D+00
 Coeff:      0.142D-04-0.258D-02-0.122D-02 0.934D-03 0.423D-01 0.175D+00
 Coeff:      0.335D+00 0.450D+00
 Gap=     0.128 Goal=   None    Shift=    0.000
 RMSDP=4.73D-09 MaxDP=4.81D-07 DE=-6.22D-10 OVMax= 1.64D-06

 SCF Done:  E(RB3LYP) =  -4864.69079553     A.U. after   15 cycles
             Convg  =    0.4730D-08             -V/T =  2.0064
 KE= 4.833677636689D+03 PE=-5.578774054093D+04 EE= 2.386282416558D+04
 Leave Link  502 at Tue Feb  3 01:51:17 2015, MaxMem= 2147483648 cpu:   44310.8
 (Enter /opt/g09/l601.exe)
 Copying SCF densities to generalized density rwf, IOpCl= 0 IROHF=0.

 **********************************************************************

            Population analysis using the SCF density.

 **********************************************************************

 Orbital symmetries:
       Occupied  (A) (A) (A) (A) (A) (A) (A) (A) (A) (A) (A) (A)
                 (A) (A) (A) (A) (A) (A) (A) (A) (A) (A) (A) (A)
                 (A) (A) (A) (A) (A) (A) (A) (A) (A) (A) (A) (A)
                 (A) (A) (A) (A) (A) (A) (A) (A) (A) (A) (A) (A)
                 (A) (A) (A) (A) (A) (A) (A) (A) (A) (A) (A) (A)
                 (A) (A) (A) (A) (A) (A) (A) (A) (A) (A) (A) (A)
                 (A) (A) (A) (A) (A) (A) (A) (A) (A) (A) (A) (A)
                 (A) (A) (A) (A) (A) (A) (A) (A) (A) (A) (A) (A)
                 (A) (A) (A) (A) (A) (A) (A) (A) (A) (A) (A) (A)
                 (A) (A) (A) (A) (A) (A) (A) (A) (A) (A) (A) (A)
                 (A) (A) (A) (A) (A) (A) (A) (A) (A) (A) (A) (A)
                 (A) (A) (A) (A) (A) (A) (A) (A) (A) (A) (A) (A)
                 (A) (A) (A) (A) (A) (A) (A) (A) (A) (A) (A) (A)
                 (A) (A) (A) (A) (A) (A) (A) (A) (A) (A) (A) (A)
                 (A) (A) (A) (A) (A) (A) (A) (A) (A) (A) (A) (A)
                 (A) (A) (A) (A) (A) (A) (A) (A) (A) (A) (A) (A)
                 (A) (A) (A) (A) (A) (A) (A) (A) (A) (A) (A) (A)
                 (A) (A) (A) (A) (A) (A) (A) (A) (A) (A) (A) (A)
                 (A) (A) (A) (A) (A) (A) (A) (A) (A) (A) (A) (A)
                 (A) (A) (A) (A) (A) (A) (A) (A) (A) (A) (A) (A)
                 (A) (A) (A) (A) (A) (A) (A) (A) (A) (A) (A) (A)
                 (A) (A) (A) (A) (A) (A) (A) (A) (A) (A) (A) (A)
                 (A) (A) (A) (A) (A) (A) (A) (A) (A) (A) (A) (A)
                 (A) (A) (A) (A) (A) (A) (A) (A) (A) (A) (A) (A)
                 (A) (A) (A) (A) (A) (A) (A) (A) (A) (A) (A) (A)
                 (A) (A) (A) (A) (A) (A) (A) (A) (A) (A) (A) (A)
                 (A) (A) (A) (A) (A) (A) (A) (A) (A) (A) (A) (A)
                 (A) (A) (A) (A) (A) (A) (A) (A) (A) (A) (A) (A)
                 (A) (A) (A) (A) (A) (A) (A) (A) (A) (A) (A) (A)
                 (A) (A) (A) (A) (A) (A) (A) (A) (A) (A) (A) (A)
                 (A) (A) (A) (A) (A) (A) (A) (A) (A) (A) (A) (A)
                 (A) (A) (A) (A) (A) (A) (A) (A) (A) (A) (A) (A)
                 (A) (A) (A)
       Virtual   (A) (A) (A) (A) (A) (A) (A) (A) (A) (A) (A) (A)
                 (A) (A) (A) (A) (A) (A) (A) (A) (A) (A) (A) (A)
                 (A) (A) (A) (A) (A) (A) (A) (A) (A) (A) (A) (A)
                 (A) (A) (A) (A) (A) (A) (A) (A) (A) (A) (A) (A)
                 (A) (A) (A) (A) (A) (A) (A) (A) (A) (A) (A) (A)
                 (A) (A) (A) (A) (A) (A) (A) (A) (A) (A) (A) (A)
                 (A) (A) (A) (A) (A) (A) (A) (A) (A) (A) (A) (A)
                 (A) (A) (A) (A) (A) (A) (A) (A) (A) (A) (A) (A)
                 (A) (A) (A) (A) (A) (A) (A) (A) (A) (A) (A) (A)
                 (A) (A) (A) (A) (A) (A) (A) (A) (A) (A) (A) (A)
                 (A) (A) (A) (A) (A) (A) (A) (A) (A) (A) (A) (A)
                 (A) (A) (A) (A) (A) (A) (A) (A) (A) (A) (A) (A)
                 (A) (A) (A) (A) (A) (A) (A) (A) (A) (A) (A) (A)
                 (A) (A) (A) (A) (A) (A) (A) (A) (A) (A) (A) (A)
                 (A) (A) (A) (A) (A) (A) (A) (A) (A) (A) (A) (A)
                 (A) (A) (A) (A) (A) (A) (A) (A) (A) (A) (A) (A)
                 (A) (A) (A) (A) (A) (A) (A) (A) (A) (A) (A) (A)
                 (A) (A) (A) (A) (A) (A) (A) (A) (A) (A) (A) (A)
                 (A) (A) (A) (A) (A) (A) (A) (A) (A) (A) (A) (A)
                 (A) (A) (A) (A) (A) (A) (A) (A) (A) (A) (A) (A)
                 (A) (A) (A) (A) (A) (A) (A) (A) (A) (A) (A) (A)
                 (A) (A) (A) (A) (A) (A) (A) (A) (A) (A) (A) (A)
                 (A) (A) (A) (A) (A) (A) (A) (A) (A) (A) (A) (A)
                 (A) (A) (A) (A) (A) (A) (A) (A) (A) (A) (A) (A)
                 (A) (A) (A) (A) (A) (A) (A) (A) (A) (A) (A) (A)
                 (A) (A) (A) (A) (A) (A) (A) (A) (A) (A) (A) (A)
                 (A) (A) (A) (A) (A) (A) (A) (A) (A) (A) (A) (A)
                 (A) (A) (A) (A) (A) (A) (A) (A) (A) (A) (A) (A)
                 (A) (A) (A) (A) (A) (A) (A) (A) (A) (A) (A) (A)
                 (A) (A) (A) (A) (A) (A) (A) (A) (A) (A) (A) (A)
                 (A) (A) (A) (A) (A) (A) (A) (A) (A) (A) (A) (A)
                 (A) (A) (A) (A) (A) (A) (A) (A) (A) (A) (A) (A)
                 (A) (A) (A) (A) (A) (A) (A) (A) (A) (A) (A) (A)
                 (A) (A) (A) (A) (A) (A) (A) (A) (A) (A) (A) (A)
                 (A) (A) (A) (A) (A) (A) (A) (A) (A) (A) (A) (A)
                 (A) (A) (A) (A) (A) (A) (A) (A) (A) (A) (A) (A)
                 (A) (A) (A) (A) (A) (A) (A) (A) (A) (A) (A) (A)
                 (A) (A) (A) (A) (A) (A) (A) (A) (A) (A) (A) (A)
                 (A) (A) (A) (A) (A) (A) (A) (A) (A) (A) (A) (A)
                 (A) (A) (A) (A) (A) (A) (A) (A) (A) (A) (A) (A)
                 (A) (A) (A) (A) (A) (A) (A) (A) (A) (A) (A) (A)
                 (A) (A) (A) (A) (A) (A) (A) (A) (A) (A) (A) (A)
                 (A) (A) (A) (A) (A) (A) (A) (A) (A) (A) (A) (A)
                 (A) (A) (A) (A) (A) (A) (A) (A) (A) (A) (A) (A)
                 (A) (A) (A) (A) (A) (A) (A) (A) (A) (A) (A) (A)
                 (A) (A) (A) (A) (A) (A) (A) (A) (A) (A) (A) (A)
                 (A) (A) (A) (A) (A) (A) (A) (A) (A) (A) (A) (A)
                 (A) (A) (A) (A) (A) (A) (A) (A) (A) (A) (A) (A)
                 (A) (A) (A) (A) (A) (A) (A) (A) (A) (A) (A) (A)
                 (A) (A) (A) (A) (A) (A) (A) (A) (A) (A) (A) (A)
                 (A) (A) (A) (A) (A) (A) (A) (A) (A) (A) (A) (A)
                 (A) (A) (A) (A) (A) (A) (A) (A) (A) (A) (A) (A)
                 (A) (A) (A) (A) (A) (A) (A) (A) (A) (A) (A) (A)
                 (A) (A) (A) (A) (A) (A) (A) (A) (A) (A) (A) (A)
                 (A) (A) (A) (A) (A) (A) (A) (A) (A) (A) (A) (A)
                 (A) (A) (A) (A) (A) (A) (A) (A) (A) (A) (A) (A)
                 (A) (A) (A) (A) (A) (A) (A) (A) (A) (A) (A) (A)
                 (A) (A) (A) (A) (A) (A) (A) (A) (A) (A) (A) (A)
                 (A) (A) (A) (A) (A) (A) (A) (A) (A) (A) (A) (A)
                 (A) (A) (A) (A) (A) (A) (A) (A) (A) (A) (A) (A)
                 (A) (A) (A) (A) (A) (A) (A) (A) (A) (A) (A) (A)
                 (A) (A) (A) (A) (A) (A) (A) (A) (A) (A) (A) (A)
                 (A) (A) (A) (A) (A) (A) (A) (A) (A) (A) (A) (A)
                 (A) (A) (A) (A) (A) (A) (A) (A) (A) (A) (A) (A)
                 (A) (A) (A) (A) (A) (A) (A) (A) (A) (A) (A) (A)
                 (A) (A) (A) (A) (A) (A) (A) (A) (A) (A) (A) (A)
                 (A) (A) (A) (A) (A) (A) (A) (A) (A) (A) (A) (A)
                 (A) (A) (A) (A) (A) (A) (A) (A) (A) (A) (A) (A)
                 (A) (A) (A) (A) (A) (A) (A) (A) (A) (A) (A) (A)
                 (A) (A) (A) (A) (A) (A) (A) (A) (A) (A) (A) (A)
                 (A) (A) (A) (A) (A) (A) (A) (A) (A) (A) (A) (A)
                 (A) (A) (A) (A) (A) (A) (A) (A) (A) (A) (A) (A)
                 (A) (A) (A) (A) (A) (A) (A) (A) (A) (A) (A) (A)
                 (A) (A) (A) (A) (A) (A) (A) (A) (A) (A) (A) (A)
                 (A) (A) (A) (A) (A) (A) (A) (A) (A) (A) (A) (A)
                 (A) (A) (A) (A) (A) (A) (A) (A) (A) (A) (A) (A)
                 (A) (A) (A) (A) (A) (A) (A) (A) (A) (A) (A) (A)
                 (A) (A) (A) (A) (A) (A) (A) (A) (A) (A) (A) (A)
                 (A) (A) (A) (A) (A) (A) (A) (A) (A) (A) (A) (A)
                 (A) (A) (A) (A) (A) (A) (A) (A) (A) (A) (A) (A)
                 (A) (A) (A) (A) (A) (A) (A) (A) (A) (A) (A) (A)
                 (A) (A) (A) (A) (A) (A) (A) (A) (A) (A) (A) (A)
                 (A) (A) (A) (A) (A) (A) (A) (A) (A) (A) (A) (A)
                 (A) (A) (A) (A) (A) (A) (A) (A) (A) (A) (A) (A)
                 (A) (A) (A) (A) (A) (A) (A) (A) (A) (A) (A) (A)
                 (A) (A) (A) (A) (A) (A) (A) (A) (A) (A) (A) (A)
                 (A) (A) (A) (A) (A) (A) (A) (A) (A) (A) (A) (A)
                 (A) (A) (A) (A) (A) (A) (A) (A) (A) (A) (A) (A)
                 (A) (A) (A) (A) (A) (A) (A) (A) (A) (A) (A) (A)
                 (A) (A) (A) (A) (A) (A) (A) (A) (A) (A) (A) (A)
                 (A) (A) (A) (A) (A) (A) (A) (A) (A) (A) (A) (A)
                 (A) (A) (A) (A) (A) (A) (A) (A) (A) (A) (A) (A)
                 (A) (A) (A) (A) (A) (A) (A) (A) (A) (A) (A) (A)
                 (A) (A) (A) (A) (A) (A) (A) (A) (A) (A) (A) (A)
                 (A) (A) (A) (A) (A) (A) (A) (A) (A) (A) (A) (A)
                 (A) (A) (A) (A) (A) (A) (A) (A) (A) (A) (A) (A)
                 (A) (A) (A) (A) (A) (A) (A) (A) (A) (A) (A) (A)
                 (A) (A) (A) (A) (A) (A) (A) (A) (A) (A) (A) (A)
                 (A) (A) (A) (A) (A) (A) (A) (A) (A) (A) (A) (A)
                 (A) (A) (A) (A) (A) (A) (A) (A) (A) (A) (A) (A)
[...]
 Alpha virt. eigenvalues --    2.27081   2.27217   2.27300   2.27372   2.27813
 Alpha virt. eigenvalues --    2.27995   2.28431   2.28928   2.29149   2.29501
 Alpha virt. eigenvalues --    2.30101   2.31142   2.31462   2.32273   2.32372
 Alpha virt. eigenvalues --    2.32498   2.33369   2.33718   2.34479   2.35624
 Alpha virt. eigenvalues --    2.36187   2.36680   2.37062   2.37307   2.37783
 Alpha virt. eigenvalues --    2.38274   2.38830   2.39091   2.39265   2.39425
 Alpha virt. eigenvalues --    2.39468   2.39601   2.39749   2.40032   2.40343
 Alpha virt. eigenvalues --    2.40403   2.40475   2.40809   2.41033   2.41164
 Alpha virt. eigenvalues --    2.41725   2.41853   2.41990   2.42350   2.42511
 Alpha virt. eigenvalues --    2.42708   2.43026   2.43435   2.43659   2.43829
 Alpha virt. eigenvalues --    2.43866   2.44308   2.44578   2.44741   2.44977
 Alpha virt. eigenvalues --    2.45012   2.45136   2.45224   2.45302   2.45629
 Alpha virt. eigenvalues --    2.45726   2.45998   2.46098   2.46214   2.46280
 Alpha virt. eigenvalues --    2.46426   2.46564   2.46893   2.47215   2.47539
 Alpha virt. eigenvalues --    2.48010   2.48091   2.48303   2.48375   2.48413
 Alpha virt. eigenvalues --    2.48708   2.48894   2.49208   2.49287   2.49339
 Alpha virt. eigenvalues --    2.49570   2.49632   2.49999   2.50129   2.50453
 Alpha virt. eigenvalues --    2.50726   2.51095   2.51215   2.51490   2.52027
 Alpha virt. eigenvalues --    2.52143   2.52469   2.52753   2.52956   2.53454
 Alpha virt. eigenvalues --    2.53631   2.54063   2.54095   2.55001   2.55768
 Alpha virt. eigenvalues --    2.55877   2.56287   2.56811   2.57148   2.58208
 Alpha virt. eigenvalues --    2.58812   2.59386   2.59745   2.60176   2.62363
 Alpha virt. eigenvalues --    2.62906   2.63403   2.63554   2.64265   2.64325
 Alpha virt. eigenvalues --    2.64904   2.65160   2.65596   2.65976   2.66184
 Alpha virt. eigenvalues --    2.66463   2.66517   2.66995   2.67575   2.67666
 Alpha virt. eigenvalues --    2.68074   2.68376   2.68574   2.68741   2.69599
 Alpha virt. eigenvalues --    2.69881   2.70504   2.70960   2.71806   2.72306
 Alpha virt. eigenvalues --    2.73206   2.73716   2.73893   2.74398   2.75165
 Alpha virt. eigenvalues --    2.75879   2.76711   2.77273   2.78064   2.78544
 Alpha virt. eigenvalues --    2.79848   2.80287   2.81737   2.83612   2.85452
 Alpha virt. eigenvalues --    2.85936   2.86066   2.86142   2.86575   2.86607
 Alpha virt. eigenvalues --    2.87258   2.87507   2.87702   2.87821   2.87967
 Alpha virt. eigenvalues --    2.88025   2.88138   2.88669   2.89707   2.90701
 Alpha virt. eigenvalues --    2.90865   2.91662   2.91858   2.92000   2.93247
 Alpha virt. eigenvalues --    2.94449   2.94622   2.95076   2.95495   2.95955
 Alpha virt. eigenvalues --    2.96175   2.96908   2.96965   2.97131   2.97197
 Alpha virt. eigenvalues --    2.97426   2.98084   2.98532   2.99344   2.99872
 Alpha virt. eigenvalues --    3.00610   3.01444   3.01600   3.02031   3.02348
 Alpha virt. eigenvalues --    3.02413   3.02503   3.02700   3.02800   3.02924
 Alpha virt. eigenvalues --    3.02959   3.03034   3.03557   3.03929   3.04004
 Alpha virt. eigenvalues --    3.04179   3.04210   3.04453   3.04617   3.05115
 Alpha virt. eigenvalues --    3.05307   3.06181   3.06452   3.07125   3.07228
 Alpha virt. eigenvalues --    3.07829   3.08320   3.08892   3.09741   3.10850
 Alpha virt. eigenvalues --    3.12595   3.13210   3.13410   3.16226   3.16476
 Alpha virt. eigenvalues --    3.19046   3.19225   3.19543   3.19689   3.22919
 Alpha virt. eigenvalues --    3.23641   3.24337   3.24650   3.26375   3.26948
 Alpha virt. eigenvalues --    3.27148   3.28042   3.30576   3.30946   3.34308
 Alpha virt. eigenvalues --    3.34812   3.38986   3.39571   3.39768   3.39968
 Alpha virt. eigenvalues --    3.40351   3.40560   3.41194   3.41687   3.41901
 Alpha virt. eigenvalues --    3.42019   3.42070   3.42931   3.43363   3.43940
 Alpha virt. eigenvalues --    3.45694   3.46321   3.47394   3.47633   3.55024
 Alpha virt. eigenvalues --    3.55393   3.64827   3.65480   3.65641   3.66535
 Alpha virt. eigenvalues --    3.70621   3.70684   3.72380   3.72907
          Condensed to atoms (all electrons):
 Mulliken atomic charges:
              1
     1  C   -0.302840
     2  C    0.104513
     3  C    0.052119
     4  C    0.042650
     5  C    0.097529
     6  C    0.107298
     7  C    0.045549
     8  C    0.042525
     9  C    0.090748
    10  C    0.029713
    11  C    0.068030
    12  C    0.075327
    13  C   -0.008476
    14  C   -0.010209
    15  C    0.059860
    16  C    0.084183
    17  C    0.019373
    18  C    0.056271
    19  C    0.016812
    20  C    0.100381
    21  C   -0.014134
    22  C   -0.010845
    23  C    0.068953
    24  C    0.072197
    25  C    0.018836
    26  N   -0.281341
    27  N   -0.280309
    28  N   -0.291659
    29  N   -0.280650
    30  C    0.061948
    31  C    0.066049
    32  C    0.030265
    33  C    0.071815
    34  C    0.037196
    35  C    0.079381
    36  C    0.025541
    37  C    0.073263
    38  C    0.046625
    39  C   -0.003864
    40  C    0.119257
    41  C    0.049700
    42  C    0.056772
    43  C    0.043976
    44  C   -0.004954
    45  C    0.123294
    46  C    0.034677
    47  C    0.045358
    48  C   -0.004268
    49  C    0.164815
    50  C    0.046811
    51  C    0.113205
    52  C    0.031123
    53  C   -0.006230
    54  C    0.162137
    55  C    0.041078
    56  C    0.127306
    57  C    0.036206
    58  C    0.006533
    59  C    0.169010
    60  C    0.024818
    61  C    0.159237
    62  C   -0.024790
    63  C    0.017485
    64  C   -0.005348
    65  C    0.114109
    66  C    0.045104
    67  C    0.051067
    68  C    0.050480
    69  C    0.042808
    70  C    0.110866
    71  C   -0.000405
    72  C    0.048147
    73  C   -0.017132
    74  C    0.162797
    75  C    0.026375
    76  C    0.163120
    77  C   -0.018093
    78  H   -0.048211
    79  H   -0.050396
    80  H   -0.050014
    81  H   -0.054179
    82  H   -0.054648
    83  H   -0.032972
    84  H   -0.053837
    85  H   -0.030788
    86  H   -0.054846
    87  H   -0.039181
    88  H   -0.039762
    89  H   -0.041278
    90  O   -0.284658
    91  C    0.130417
    92  O   -0.288254
    93  C    0.117681
    94  O   -0.281085
    95  O   -0.281315
    96  C    0.131435
    97  C    0.130374
    98  H   -0.029719
    99  H   -0.028996
   100  H   -0.031571
   101  H   -0.035995
   102  H   -0.034454
   103  H   -0.032446
   104  H   -0.026937
   105  H   -0.024162
   106  H   -0.036637
   107  H   -0.036586
   108  H   -0.003630
   109  H   -0.026960
   110  H   -0.025911
   111  H   -0.029394
   112  H   -0.037350
   113  H   -0.033210
   114  H    0.020393
   115  H    0.040889
   116  H    0.024385
   117  H    0.022350
   118  H    0.026209
   119  H    0.031384
   120  H    0.034166
   121  H    0.024335
   122  H    0.026218
   123  H    0.025669
   124  H    0.024510
   125  H    0.032731
   126  O   -0.280112
   127  H   -0.033385
   128  O   -0.292658
   129  H   -0.048930
   130  H   -0.033965
   131  O   -0.280292
   132  O   -0.280036
   133  H   -0.033615
   134  O   -0.291522
   135  H   -0.036202
   136  O   -0.302389
   137  H   -0.022429
   138  H   -0.024021
   139  O   -0.307332
   140  O   -0.292417
   141  H   -0.034861
   142  O   -0.287942
   143  C    0.149473
   144  O   -0.300343
   145  C    0.131500
   146  O   -0.300174
   147  C    0.131270
   148  O   -0.288018
   149  C    0.148940
   150  H    0.021705
   151  H    0.008966
   152  H    0.009113
   153  H    0.022506
   154  H    0.008162
   155  H    0.009677
   156  H    0.031387
   157  H    0.003469
   158  H    0.026684
   159  H    0.002884
   160  H    0.026181
   161  H    0.032536
   162  C    0.134159
   163  C    0.130369
   164  C    0.134414
   165  C    0.134544
   166  H    0.033392
   167  H    0.031174
   168  H    0.030624
   169  H    0.030392
   170  H    0.026164
   171  H    0.029414
   172  H    0.028984
   173  H    0.026900
   174  H    0.027446
   175  H    0.032316
   176  H    0.028686
   177  H    0.031896
   178  C    0.127635
   179  C    0.131811
   180  C    0.127309
   181  C    0.125458
   182  H    0.028726
   183  H    0.016282
   184  H    0.038652
   185  H    0.030348
   186  H    0.035319
   187  H    0.018361
   188  H    0.034104
   189  H    0.036170
   190  H    0.024016
   191  H    0.030462
   192  H    0.032940
   193  H    0.026889
 Sum of Mulliken atomic charges =   0.00000
 Mulliken charges with hydrogens summed into heavy atoms:
              1
     1  C   -0.302840
     2  C    0.104513
     3  C    0.052119
     4  C    0.042650
     5  C    0.097529
     6  C    0.107298
     7  C    0.045549
     8  C    0.042525
     9  C    0.090748
    10  C   -0.011565
    11  C    0.068030
    12  C    0.036145
    13  C   -0.063322
    14  C   -0.064857
    15  C    0.026888
    16  C    0.084183
    17  C   -0.020390
    18  C    0.005875
    19  C    0.016812
    20  C    0.050367
    21  C   -0.068314
    22  C   -0.064682
    23  C    0.038165
    24  C    0.072197
    25  C   -0.029375
    26  N   -0.281341
    27  N   -0.280309
    28  N   -0.291659
    29  N   -0.280650
    30  C    0.061948
    31  C    0.066049
    32  C    0.030265
    33  C    0.071815
    34  C    0.037196
    35  C    0.079381
    36  C    0.025541
    37  C    0.073263
    38  C    0.014179
    39  C   -0.038318
    40  C    0.119257
    41  C    0.019982
    42  C    0.027776
    43  C    0.012405
    44  C   -0.040948
    45  C    0.123294
    46  C    0.007739
    47  C    0.021196
    48  C   -0.039129
    49  C    0.164815
    50  C    0.046811
    51  C    0.113205
    52  C    0.007102
    53  C   -0.042432
    54  C    0.162137
    55  C    0.041078
    56  C    0.127306
    57  C    0.013776
    58  C   -0.042397
    59  C    0.169010
    60  C    0.024818
    61  C    0.159237
    62  C   -0.058175
    63  C   -0.011909
    64  C   -0.031259
    65  C    0.114109
    66  C    0.007754
    67  C    0.017857
    68  C    0.023520
    69  C    0.039178
    70  C    0.110866
    71  C   -0.036991
    72  C    0.011510
    73  C   -0.051097
    74  C    0.162797
    75  C    0.026375
    76  C    0.163120
    77  C   -0.051709
    90  O   -0.284658
    91  C    0.213326
    92  O   -0.288254
    93  C    0.203348
    94  O   -0.281085
    95  O   -0.281315
    96  C    0.211379
    97  C    0.215093
   126  O   -0.280112
   128  O   -0.292658
   131  O   -0.280292
   132  O   -0.280036
   134  O   -0.291522
   136  O   -0.302389
   139  O   -0.307332
   140  O   -0.292417
   142  O   -0.287942
   143  C    0.189257
   144  O   -0.300343
   145  C    0.193100
   146  O   -0.300174
   147  C    0.192811
   148  O   -0.288018
   149  C    0.189284
   162  C    0.220129
   163  C    0.225559
   164  C    0.227312
   165  C    0.217874
   178  C    0.217926
   179  C    0.215470
   180  C    0.211337
   181  C    0.219748
 Sum of Mulliken charges with hydrogens summed into heavy atoms =   0.00000
 Electronic spatial extent (au):  <R**2>=         142554.6606
 Charge=              0.0000 electrons
 Dipole moment (field-independent basis, Debye):
    X=              0.7789    Y=             -7.9074    Z=              3.1551  Tot=              8.5491
 Quadrupole moment (field-independent basis, Debye-Ang):
   XX=           -573.5133   YY=           -561.1700   ZZ=           -599.1363
   XY=              9.6089   XZ=             51.4212   YZ=             -2.6078
 Traceless Quadrupole moment (field-independent basis, Debye-Ang):
   XX=              4.4266   YY=             16.7698   ZZ=            -21.1964
   XY=              9.6089   XZ=             51.4212   YZ=             -2.6078
 Octapole moment (field-independent basis, Debye-Ang**2):
  XXX=             92.0511  YYY=           -500.8533  ZZZ=            119.3909  XYY=            180.1870
  XXY=           -252.3128  XXZ=             44.2358  XZZ=           -156.2914  YZZ=            -79.8869
  YYZ=             87.3253  XYZ=             81.2360
 Hexadecapole moment (field-independent basis, Debye-Ang**3):
 XXXX=         -85843.8429 YYYY=         -69031.3279 ZZZZ=         -23175.2206 XXXY=           1448.7526
 XXXZ=           2989.4881 YYYX=           -314.9072 YYYZ=            -66.7225 ZZZX=           1637.9898
 ZZZY=           -343.0077 XXYY=         -23364.7714 XXZZ=         -18006.0247 YYZZ=         -14470.3552
 XXYZ=           -506.8965 YYXZ=           1056.1064 ZZXY=             -9.6823
 N-N= 2.222654794313D+04 E-N=-5.578774054814D+04  KE= 4.833677636689D+03
 Leave Link  601 at Tue Feb  3 01:51:21 2015, MaxMem= 2147483648 cpu:     100.3
 (Enter /opt/g09/l9999.exe)
 1\1\GINC-CHPC-SCANDIUM\SP\RB3LYP\CC-pVDZ\C89H84N4O16\JARVIST\03-Feb-20
 15\0\\#p sp B3LYP/cc-pVDZ\\Auto Spiro; and yes I said yes I will Yes.\
 \0,1\C,0,-0.017675,0.118327,0.407437\C,0,-0.648023,1.109399,1.393546\C
 ,0,-0.540105,0.628247,2.713948\C,0,0.262268,-0.598449,2.698935\C,0,0.5
 98611,-0.905043,1.36506\C,0,-1.106362,-0.485747,-0.496783\C,0,-0.83814
 3,-0.201491,-1.847968\C,0,0.431314,0.522709,-1.93205\C,0,0.935922,0.71
 7889,-0.629665\C,0,-2.245677,-1.176944,-0.116466\C,0,-3.150125,-1.6055
 54,-1.105014\C,0,-2.885607,-1.3179,-2.4574\C,0,-1.741004,-0.617299,-2.
 830907\C,0,0.711317,-1.426516,3.729518\C,0,1.48351,-2.544765,3.423512\
 C,0,1.830228,-2.845637,2.092098\C,0,1.375999,-2.008534,1.053903\C,0,-1
 .344169,2.274367,1.11306\C,0,-1.991032,2.952734,2.159192\C,0,-1.911228
 ,2.458957,3.46984\C,0,-1.176866,1.306723,3.756445\C,0,1.159529,0.98175
 7,-3.032172\C,0,2.381478,1.615439,-2.827033\C,0,2.902058,1.788571,-1.5
 29885\C,0,2.1571,1.342315,-0.420075\N,0,-4.313001,-2.337159,-0.740616\
 N,0,2.643092,-3.971935,1.804756\N,0,-2.759163,4.130941,1.881936\N,0,4.
 173013,2.393583,-1.350416\C,0,5.257477,2.047424,-2.199941\C,0,-2.06119
 7,5.270736,1.403448\C,0,4.35761,3.372289,-0.330826\C,0,-4.169089,4.004
 363,1.743708\C,0,-4.207392,-3.375937,0.229742\C,0,-5.579511,-1.990151,
 -1.273165\C,0,3.725486,-4.300893,2.67103\C,0,2.386995,-4.780235,0.6655
 52\C,0,3.912396,-5.611954,3.121555\C,0,4.983421,-5.943911,3.954712\C,0
 ,5.876826,-4.950591,4.371036\C,0,5.689678,-3.631015,3.932721\C,0,4.636
 295,-3.313578,3.087097\C,0,-5.117418,-3.470298,1.288477\C,0,-5.024301,
 -4.496615,2.231936\C,0,-3.991701,-5.436074,2.140528\C,0,-3.0663,-5.338
 694,1.090889\C,0,-3.178245,-4.33055,0.143339\C,0,-6.504558,-3.001412,-
 1.592024\C,0,-7.762759,-2.667382,-2.087874\C,0,-8.119042,-1.318737,-2.
 321982\C,0,-7.179857,-0.321417,-2.015664\C,0,-5.92727,-0.654407,-1.485
 662\C,0,3.461849,-5.26841,-0.099006\C,0,3.211807,-6.061663,-1.215725\C
 ,0,1.890281,-6.392348,-1.601088\C,0,0.828207,-5.894155,-0.828831\C,0,1
 .081315,-5.10232,0.300264\C,0,-0.875951,5.646971,2.051623\C,0,-0.14364
 5,6.740989,1.584942\C,0,-0.584068,7.474705,0.470949\C,0,-1.790637,7.10
 897,-0.15031\C,0,-2.522177,6.004145,0.300442\C,0,-4.756961,2.807577,1.
 3173\C,0,-6.143445,2.681011,1.196906\C,0,-6.972753,3.767551,1.486671\C
 ,0,-6.39367,4.969907,1.921895\C,0,-5.017569,5.083098,2.059394\C,0,3.46
 2045,4.446929,-0.19527\C,0,3.653815,5.415441,0.78155\C,0,4.75782,5.336
 824,1.643884\C,0,5.658396,4.273198,1.518303\C,0,5.447652,3.296774,0.54
 2561\C,0,5.429384,0.715952,-2.606537\C,0,6.491471,0.379134,-3.451453\C
 ,0,7.402526,1.358161,-3.883071\C,0,7.235462,2.683506,-3.446127\C,0,6.1
 59648,3.033764,-2.623466\H,0,2.555507,1.471656,0.581647\H,0,-1.423894,
 2.65444,0.098527\H,0,-2.429818,2.994227,4.259804\H,0,-1.112829,0.94325
 2,4.778954\H,0,0.458508,-1.214923,4.765444\H,0,1.828522,-3.198258,4.21
 804\H,0,0.78139,0.853808,-4.043305\H,0,2.954877,1.977096,-3.674279\H,0
 ,-1.553072,-0.413528,-3.882064\H,0,-3.586321,-1.657779,-3.213442\H,0,1
 .64045,-2.230281,0.025053\H,0,-2.450087,-1.388352,0.928528\O,0,4.86849
 ,6.341841,2.569599\C,0,5.984474,6.324035,3.442833\O,0,-8.336279,3.7607
 34,1.381088\C,0,-8.959762,2.558748,0.950363\O,0,6.95065,-5.158762,5.19
 1189\O,0,-3.801469,-6.474964,3.010844\C,0,-4.695495,-6.601093,4.102571
 \C,0,7.176838,-6.471801,5.674987\H,0,6.394022,-2.871468,4.257642\H,0,4
 .507288,-2.29186,2.743585\H,0,-5.911838,-2.735672,1.376824\H,0,-5.7501
 73,-4.537251,3.03633\H,0,5.097313,-6.971313,4.281586\H,0,3.213784,-6.3
 83834,2.813735\H,0,-2.26592,-6.068004,1.020981\H,0,-2.455462,-4.282552
 ,-0.664713\H,0,6.146044,2.470471,0.451503\H,0,6.516457,4.183444,2.1749
 65\H,0,2.965049,6.248908,0.880066\H,0,2.612326,4.522875,-0.866776\H,0,
 -6.553718,1.739917,0.849852\H,0,-4.130055,1.956903,1.072122\H,0,-7.046
 977,5.803788,2.161022\H,0,-4.585832,6.015654,2.409104\H,0,-8.786147,1.
 740245,1.662634\H,0,-8.60761,2.247669,-0.041024\H,0,-10.029163,2.77595
 ,0.908559\H,0,-5.72903,-6.759651,3.765037\H,0,-4.664783,-5.719015,4.75
 6511\H,0,-4.363206,-7.476449,4.664241\H,0,8.067895,-6.411297,6.302717\
 H,0,7.359197,-7.179948,4.855196\H,0,6.332656,-6.831924,6.278328\H,0,6.
 931945,6.374821,2.889522\H,0,5.989328,5.428055,4.078583\H,0,5.888348,7
 .210863,4.072344\O,0,-2.158669,7.890764,-1.207626\H,0,-3.434041,5.6993
 67,-0.195198\O,0,1.016925,7.183284,2.156421\H,0,-0.54645,5.082534,2.91
 3345\H,0,4.737781,-0.03728,-2.253507\O,0,6.741636,-0.886917,-3.897876\
 O,0,8.172307,3.56709,-3.898557\H,0,6.008119,4.057752,-2.309528\O,0,4.1
 92675,-6.541371,-2.040005\H,0,4.472176,-5.001623,0.180771\O,0,-0.50012
 6,-6.080034,-1.101422\H,0,0.23563,-4.750237,0.879073\H,0,-5.241233,0.1
 50228,-1.248571\O,0,-7.444241,1.022384,-2.105327\O,0,-8.734831,-3.5870
 38,-2.372512\H,0,-6.226896,-4.034923,-1.433861\O,0,0.175693,8.504853,-
 0.030988\C,0,-0.107204,9.77896,0.54419\O,0,-9.389781,-0.970458,-2.7233
 7\C,0,-9.776967,-1.38613,-4.036746\O,0,1.648197,-7.082258,-2.769535\C,
 0,2.076406,-8.44638,-2.802479\O,0,8.407985,1.03428,-4.761755\C,0,9.633
 221,0.653341,-4.139421\H,0,0.56318,10.492092,0.057029\H,0,0.087775,9.7
 78384,1.624058\H,0,-1.147494,10.075261,0.358166\H,0,10.330447,0.422358
 ,-4.94915\H,0,9.499184,-0.237263,-3.512044\H,0,10.041466,1.471962,-3.5
 33077\H,0,3.161833,-8.525772,-2.702432\H,0,1.591306,-9.031996,-2.00933
 9\H,0,1.768258,-8.834342,-3.776585\H,0,-9.096981,-0.97612,-4.795785\H,
 0,-10.780085,-0.982472,-4.195593\H,0,-9.801772,-2.47557,-4.118897\C,0,
 8.040945,4.929167,-3.525919\C,0,5.540073,-6.209097,-1.745486\C,0,-8.47
 2633,-4.951442,-2.083343\C,0,-3.355156,7.564659,-1.894517\H,0,6.140608
 ,-6.685544,-2.522684\H,0,5.702147,-5.123661,-1.775506\H,0,5.84676,-6.5
 90274,-0.762764\H,0,8.883127,5.44656,-3.989602\H,0,8.089101,5.059057,-
 2.436552\H,0,7.102111,5.360929,-3.896736\H,0,-3.45878,8.313156,-2.6827
 21\H,0,-4.230176,7.610046,-1.232498\H,0,-3.301768,6.566261,-2.348466\H
 ,0,-8.243118,-5.099062,-1.020441\H,0,-7.643229,-5.341827,-2.687689\H,0
 ,-9.387941,-5.490003,-2.33616\C,0,5.811179,-1.905459,-3.571162\C,0,-0.
 966989,-7.263326,-1.749002\C,0,-8.065903,1.533997,-3.284573\C,0,1.4646
 75,6.53872,3.341749\H,0,-2.044893,-7.279532,-1.570028\H,0,-0.517172,-8
 .161017,-1.307074\H,0,-0.764587,-7.244619,-2.82137\H,0,-7.85047,2.6055
 87,-3.290997\H,0,-9.14609,1.372372,-3.273313\H,0,-7.635384,1.076723,-4
 .184616\H,0,2.407328,7.021024,3.601629\H,0,1.649744,5.470906,3.17398\H
 ,0,0.738877,6.659283,4.156963\H,0,6.168933,-2.807148,-4.072461\H,0,4.8
 03489,-1.664967,-3.933406\H,0,5.76713,-2.085475,-2.488024\\Version=EM6
 4L-G09RevA.02\State=1-A\HF=-4864.6907955\RMSD=4.730e-09\Dipole=0.30642
 43,-3.1110025,1.2413036\Quadrupole=3.2910508,12.4679596,-15.7590104,7.
 1440118,38.2304131,-1.9388388\PG=C01 [X(C89H84N4O16)]\\@


 IT PROBABLY IS NOT POSSIBLE FOR A SCIENTIST TO INTERROGATE NATURE 
 FROM A WHOLLY DISINTERESTED VIEWPOINT.
 EVEN IF HE HAS NO PARTICULAR AXE TO GRIND, HE IS LIKELY TO HAVE 
 A DISTINCTIVE WAY OF VIEWING NATURE.

                                                   -- JOHN LOSEE
 Job cpu time:  0 days 12 hours 47 minutes 21.5 seconds.
 File lengths (MBytes):  RWF=   2017 Int=      0 D2E=      0 Chk=    132 Scr=      1
 Normal termination of Gaussian 09 at Tue Feb  3 01:51:22 2015.
