 Entering Gaussian System, Link 0=g09
 Input=sp_8_B3LYP_cc-pVDZ.com
 Output=sp_8_B3LYP_cc-pVDZ.log
 Initial command:
 /opt/g09/l1.exe /home/jarvist/2014-07_SPIRO/b3lyp-631gs_opt/delta_scf/neutral/Gau-45290.inp -scrdir=/home/jarvist/2014-07_SPIRO/b3lyp-631gs_opt/delta_scf/neutral/
 Default is to use a total of   8 processors:
                                8 via shared-memory
                                1 via Linda
 Entering Link 1 = /opt/g09/l1.exe PID=     45292.
  
 Copyright (c) 1988,1990,1992,1993,1995,1998,2003,2009, Gaussian, Inc.
                  All Rights Reserved.
  
 This is part of the Gaussian(R) 09 program.  It is based on
 the Gaussian(R) 03 system (copyright 2003, Gaussian, Inc.),
 the Gaussian(R) 98 system (copyright 1998, Gaussian, Inc.),
 the Gaussian(R) 94 system (copyright 1995, Gaussian, Inc.),
 the Gaussian 92(TM) system (copyright 1992, Gaussian, Inc.),
 the Gaussian 90(TM) system (copyright 1990, Gaussian, Inc.),
 the Gaussian 88(TM) system (copyright 1988, Gaussian, Inc.),
 the Gaussian 86(TM) system (copyright 1986, Carnegie Mellon
 University), and the Gaussian 82(TM) system (copyright 1983,
 Carnegie Mellon University). Gaussian is a federally registered
 trademark of Gaussian, Inc.
  
 This software contains proprietary and confidential information,
 including trade secrets, belonging to Gaussian, Inc.
  
 This software is provided under written license and may be
 used, copied, transmitted, or stored only in accord with that
 written license.
  
 The following legend is applicable only to US Government
 contracts under FAR:
  
                    RESTRICTED RIGHTS LEGEND
  
 Use, reproduction and disclosure by the US Government is
 subject to restrictions as set forth in subparagraphs (a)
 and (c) of the Commercial Computer Software - Restricted
 Rights clause in FAR 52.227-19.
  
 Gaussian, Inc.
 340 Quinnipiac St., Bldg. 40, Wallingford CT 06492
  
  
 ---------------------------------------------------------------
 Warning -- This program may not be used in any manner that
 competes with the business of Gaussian, Inc. or will provide
 assistance to any competitor of Gaussian, Inc.  The licensee
 of this program is prohibited from giving any competitor of
 Gaussian, Inc. access to this program.  By using this program,
 the user acknowledges that Gaussian, Inc. is engaged in the
 business of creating and licensing software in the field of
 computational chemistry and represents and warrants to the
 licensee that it is not a competitor of Gaussian, Inc. and that
 it will not use this program in any manner prohibited above.
 ---------------------------------------------------------------
  

 Cite this work as:
 Gaussian 09, Revision A.02,
 M. J. Frisch, G. W. Trucks, H. B. Schlegel, G. E. Scuseria, 
 M. A. Robb, J. R. Cheeseman, G. Scalmani, V. Barone, B. Mennucci, 
 G. A. Petersson, H. Nakatsuji, M. Caricato, X. Li, H. P. Hratchian, 
 A. F. Izmaylov, J. Bloino, G. Zheng, J. L. Sonnenberg, M. Hada, 
 M. Ehara, K. Toyota, R. Fukuda, J. Hasegawa, M. Ishida, T. Nakajima, 
 Y. Honda, O. Kitao, H. Nakai, T. Vreven, J. A. Montgomery, Jr., 
 J. E. Peralta, F. Ogliaro, M. Bearpark, J. J. Heyd, E. Brothers, 
 K. N. Kudin, V. N. Staroverov, R. Kobayashi, J. Normand, 
 K. Raghavachari, A. Rendell, J. C. Burant, S. S. Iyengar, J. Tomasi, 
 M. Cossi, N. Rega, J. M. Millam, M. Klene, J. E. Knox, J. B. Cross, 
 V. Bakken, C. Adamo, J. Jaramillo, R. Gomperts, R. E. Stratmann, 
 O. Yazyev, A. J. Austin, R. Cammi, C. Pomelli, J. W. Ochterski, 
 R. L. Martin, K. Morokuma, V. G. Zakrzewski, G. A. Voth, 
 P. Salvador, J. J. Dannenberg, S. Dapprich, A. D. Daniels, 
 O. Farkas, J. B. Foresman, J. V. Ortiz, J. Cioslowski, 
 and D. J. Fox, Gaussian, Inc., Wallingford CT, 2009.
 
 ******************************************
 Gaussian 09:  EM64L-G09RevA.02 11-Jun-2009
                 3-Feb-2015 
 ******************************************
 %mem=16GB
 %nprocs=24
 Will use up to   24 processors via shared memory.
 Default route:  MaxDisk=100GB
 -------------------
 #p sp B3LYP/cc-pVDZ
 -------------------
 1/38=1/1;
 2/12=2,17=6,18=5,40=1/2;
 3/5=16,11=2,16=1,25=1,30=1,74=-5/1,2,3;
 4//1;
 5/5=2,38=5/2;
 6/7=2,8=2,9=2,10=2,28=1/1;
 99/5=1,9=1/99;
 Leave Link    1 at Tue Feb  3 01:51:22 2015, MaxMem= 2147483648 cpu:       2.0
 (Enter /opt/g09/l101.exe)
 ------------------------------------------
 Auto Spiro; and yes I said yes I will Yes.
 ------------------------------------------
 Symbolic Z-matrix:
 Charge =  0 Multiplicity = 1
 C                    -0.02081  -0.01101   0.25468 
 C                     0.53629  -1.04358   1.24199 
 C                     0.30844  -0.63094   2.56997 
 C                    -0.39598   0.65238   2.55117 
 C                    -0.59543   1.0411    1.21145 
 C                     1.02585   0.55138  -0.71458 
 C                     0.63462   0.327    -2.04903 
 C                    -0.65091  -0.37341  -2.05243 
 C                    -1.05418  -0.58829  -0.7203 
 C                     2.21739   1.18945  -0.40914 
 C                     3.04614   1.63924  -1.45545 
 C                     2.6482    1.42537  -2.78978 
 C                     1.45833   0.76623  -3.08865 
 C                    -0.85968   1.47504   3.58026 
 C                    -1.50325   2.67039   3.26682 
 C                    -1.70792   3.05645   1.92791 
 C                    -1.24549   2.22146   0.8915 
 C                     1.19478  -2.22875   0.9577 
 C                     1.63598  -3.04361   2.01878 
 C                     1.40199  -2.63398   3.34572 
 C                     0.75061  -1.43437   3.62374 
 C                    -1.46534  -0.82051  -3.09614 
 C                    -2.6567   -1.47918  -2.80365 
 C                    -3.06512  -1.68724  -1.47107 
 C                    -2.24657  -1.22752  -0.42073 
 N                     4.26684   2.30448  -1.17182 
 N                    -2.37619   4.26995   1.62461 
 N                     2.31129  -4.26313   1.75416 
 N                    -4.28474  -2.35475  -1.19453 
 C                    -5.43562  -2.10721  -1.99629 
 C                     1.85707  -5.12347   0.71574 
 C                    -4.38516  -3.2404   -0.08594 
 C                     3.42825  -4.6455    2.54705 
 C                     4.34832   3.22036  -0.08559 
 C                     5.42768   2.0327   -1.94695 
 C                    -3.48806   4.68696   2.40722 
 C                    -1.9014    5.10649   0.57499 
 C                    -3.60796   6.01109   2.84465 
 C                    -4.71199   6.42913   3.59188 
 C                    -5.71048   5.51187   3.93545 
 C                    -5.59304   4.18009   3.5108 
 C                    -4.50539   3.77701   2.74956 
 C                     5.44167   3.20507   0.78744 
 C                     5.54283   4.12013   1.83775 
 C                     4.52672   5.0579    2.04715 
 C                     3.41928   5.07065   1.186 
 C                     3.33632   4.17377   0.12998 
 C                     6.2691    3.08001  -2.36055 
 C                     7.41839   2.83295  -3.10122 
 C                     7.75077   1.51017  -3.47195 
 C                     6.90093   0.4716   -3.08451 
 C                     5.75996   0.72612  -2.31947 
 C                    -2.81889   5.69812  -0.31641 
 C                    -2.38347   6.53182  -1.34077 
 C                    -0.99639   6.77312  -1.51367 
 C                    -0.09571   6.17351  -0.63736 
 C                    -0.54008   5.35513   0.40895 
 C                     0.49796  -5.36683   0.52262 
 C                     0.07301  -6.20998  -0.5117 
 C                     0.98982  -6.84078  -1.3486 
 C                     2.37383  -6.60625  -1.14708 
 C                     2.79091  -5.74669  -0.13633 
 C                     4.42774  -3.72105   2.87342 
 C                     5.52341  -4.08663   3.65846 
 C                     5.64925  -5.40423   4.11178 
 C                     4.65896  -6.3401    3.77972 
 C                     3.56063  -5.9642    3.01896 
 C                    -3.37751  -4.18794   0.17378 
 C                    -3.48055  -5.05748   1.25071 
 C                    -4.60394  -5.02255   2.09048 
 C                    -5.61627  -4.09137   1.8372 
 C                    -5.49561  -3.20411   0.76504 
 C                    -5.79498  -0.81199  -2.36432 
 C                    -6.92448  -0.59375  -3.16281 
 C                    -7.7239   -1.65391  -3.58148 
 C                    -7.36835  -2.97318  -3.19953 
 C                    -6.23068  -3.18754  -2.42904 
 H                    -2.55575  -1.37302   0.60943 
 H                     1.37513  -2.53482  -0.06801 
 H                     1.73538  -3.27021   4.15921 
 H                     0.57905  -1.14256   4.6569 
 H                    -0.71135   1.20182   4.62207 
 H                    -1.85276   3.3212    4.06173 
 H                    -1.17283  -0.67459  -4.13305 
 H                    -3.28646  -1.84157  -3.6095 
 H                     1.17397   0.61452  -4.12696 
 H                     3.28455   1.78364  -3.59245 
 H                    -1.40428   2.50836  -0.14324 
 H                     2.51787   1.34295   0.6225 
 O                    -4.61357  -5.93135   3.11266 
 C                    -5.71257  -5.91563   4.00705 
 O                     6.684    -5.87464   4.87418 
 C                     7.70802  -4.96629   5.23962 
 O                    -6.82747   5.80768   4.66899 
 O                     4.51781   5.99298   3.04525 
 C                     5.60911   6.01207   3.94901 
 C                    -6.98815   7.13772   5.12988 
 H                    -6.37818   3.47909   3.77715 
 H                    -4.43247   2.74693   2.41495 
 H                     6.23066   2.47425   0.64061 
 H                     6.41004   4.07957   2.48702 
 H                    -4.77026   7.4643    3.90914 
 H                    -2.83095   6.72629   2.59358 
 H                     2.63889   5.80614   1.3575 
 H                     2.47732   4.20003  -0.53339 
 H                    -6.28022  -2.47607   0.58445 
 H                    -6.49418  -4.03254   2.47071 
 H                    -2.70308  -5.78728   1.45645 
 H                    -2.50552  -4.23038  -0.47166 
 H                     6.27316  -3.33968   3.89398 
 H                     4.34524  -2.69969   2.515 
 H                     4.76302  -7.35741   4.14458 
 H                     2.7931   -6.69381   2.78073 
 H                     7.316    -4.13291   5.83849 
 H                     8.22463  -4.56131   4.35865 
 H                     8.41757  -5.53845   5.8406 
 H                     6.55849   6.21305   3.4341 
 H                     5.69436   5.06623   4.50108 
 H                     5.40296   6.82141   4.65214 
 H                    -7.92885   7.1528    5.68385 
 H                    -7.04776   7.8515    4.29681 
 H                    -6.1697    7.4368    5.79879 
 H                    -6.65894  -6.1279    3.49089 
 H                    -5.7972   -4.95218   4.5277 
 H                    -5.51717  -6.70327   4.73734 
 O                     3.20991  -7.25652  -2.00608 
 H                     3.84443  -5.54552   0.01131 
 H                    -0.9893   -6.38337  -0.64223 
 H                    -0.23429  -4.89736   1.17068 
 H                    -5.19537   0.03006  -2.03563 
 H                    -7.18114   0.42265  -3.43891 
 O                    -8.19635  -3.95757  -3.65218 
 H                    -5.94012  -4.19161  -2.14653 
 O                    -3.20245   7.14938  -2.23951 
 H                    -3.87401   5.49189  -0.18816 
 H                     0.96808   6.35209  -0.74673 
 H                     0.17923   4.90827   1.0869 
 H                     5.12554  -0.0987   -2.01254 
 H                     7.13181  -0.5535   -3.35174 
 O                     8.23521   3.89451  -3.41128 
 H                     6.04428   4.10743  -2.09567 
 O                     0.67437  -7.68806  -2.37164 
 C                    -0.69667  -7.94892  -2.61023 
 O                     8.90924   1.3511   -4.1842 
 C                     9.30478   0.03252  -4.52185 
 O                    -0.66229   7.59433  -2.55146 
 C                     0.71254   7.85917  -2.76485 
 O                    -8.85009  -1.54188  -4.34507 
 C                    -9.25064  -0.24281  -4.74072 
 H                    -0.72739  -8.63108  -3.46212 
 H                    -1.24672  -7.03118  -2.86019 
 H                    -1.1758   -8.42814  -1.74522 
 H                    -10.15964  -0.3768   -5.33039 
 H                    -8.48629   0.24706  -5.35974 
 H                    -9.47158   0.39562  -3.87413 
 H                     0.75843   8.51821  -3.63403 
 H                     1.16758   8.36531  -1.90228 
 H                     1.27481   6.93939  -2.9768 
 H                     8.57031  -0.45762  -5.17535 
 H                     9.45551  -0.58417  -3.62581 
 H                     10.25211   0.13128  -5.05531 
 C                    -7.89645  -5.29495  -3.2929 
 C                    -4.59862   6.94287  -2.11613 
 C                     8.32437   4.22889  -4.79752 
 C                     4.60508  -7.07381  -1.84045 
 H                    -5.05817   7.53103  -2.91287 
 H                    -4.86502   5.88512  -2.24643 
 H                    -4.97573   7.28908  -1.14432 
 H                    -8.68353  -5.9065   -3.73823 
 H                    -7.9009   -5.43265  -2.20325 
 H                    -6.92259  -5.61283  -3.68961 
 H                     5.07918  -7.69371  -2.60391 
 H                     4.94144  -7.39894  -0.84676 
 H                     4.89772  -6.02575  -1.99169 
 H                     7.33293   4.46792  -5.20582 
 H                     8.77465   3.41892  -5.37931 
 H                     8.95942   5.11635  -4.85259 
 
 NAtoms=    177 NQM=    177 NQMF=      0 NMic=      0 NMicF=      0 NTot=    177.
                    Isotopes and Nuclear Properties:
 (Nuclear quadrupole moments (NQMom) in fm**2, nuclear magnetic moments (NMagM)
  in nuclear magnetons)

  Atom         1           2           3           4           5           6           7           8           9          10
 IAtWgt=          12          12          12          12          12          12          12          12          12          12
 AtmWgt=  12.0000000  12.0000000  12.0000000  12.0000000  12.0000000  12.0000000  12.0000000  12.0000000  12.0000000  12.0000000
 NucSpn=           0           0           0           0           0           0           0           0           0           0
 AtZEff=   0.0000000   0.0000000   0.0000000   0.0000000   0.0000000   0.0000000   0.0000000   0.0000000   0.0000000   0.0000000
 NQMom=    0.0000000   0.0000000   0.0000000   0.0000000   0.0000000   0.0000000   0.0000000   0.0000000   0.0000000   0.0000000
 NMagM=    0.0000000   0.0000000   0.0000000   0.0000000   0.0000000   0.0000000   0.0000000   0.0000000   0.0000000   0.0000000

  Atom        11          12          13          14          15          16          17          18          19          20
 IAtWgt=          12          12          12          12          12          12          12          12          12          12
 AtmWgt=  12.0000000  12.0000000  12.0000000  12.0000000  12.0000000  12.0000000  12.0000000  12.0000000  12.0000000  12.0000000
 NucSpn=           0           0           0           0           0           0           0           0           0           0
 AtZEff=   0.0000000   0.0000000   0.0000000   0.0000000   0.0000000   0.0000000   0.0000000   0.0000000   0.0000000   0.0000000
 NQMom=    0.0000000   0.0000000   0.0000000   0.0000000   0.0000000   0.0000000   0.0000000   0.0000000   0.0000000   0.0000000
 NMagM=    0.0000000   0.0000000   0.0000000   0.0000000   0.0000000   0.0000000   0.0000000   0.0000000   0.0000000   0.0000000

  Atom        21          22          23          24          25          26          27          28          29          30
 IAtWgt=          12          12          12          12          12          14          14          14          14          12
 AtmWgt=  12.0000000  12.0000000  12.0000000  12.0000000  12.0000000  14.0030740  14.0030740  14.0030740  14.0030740  12.0000000
 NucSpn=           0           0           0           0           0           2           2           2           2           0
 AtZEff=   0.0000000   0.0000000   0.0000000   0.0000000   0.0000000   0.0000000   0.0000000   0.0000000   0.0000000   0.0000000
 NQMom=    0.0000000   0.0000000   0.0000000   0.0000000   0.0000000   2.0440000   2.0440000   2.0440000   2.0440000   0.0000000
 NMagM=    0.0000000   0.0000000   0.0000000   0.0000000   0.0000000   0.4037610   0.4037610   0.4037610   0.4037610   0.0000000

  Atom        31          32          33          34          35          36          37          38          39          40
 IAtWgt=          12          12          12          12          12          12          12          12          12          12
 AtmWgt=  12.0000000  12.0000000  12.0000000  12.0000000  12.0000000  12.0000000  12.0000000  12.0000000  12.0000000  12.0000000
 NucSpn=           0           0           0           0           0           0           0           0           0           0
 AtZEff=   0.0000000   0.0000000   0.0000000   0.0000000   0.0000000   0.0000000   0.0000000   0.0000000   0.0000000   0.0000000
 NQMom=    0.0000000   0.0000000   0.0000000   0.0000000   0.0000000   0.0000000   0.0000000   0.0000000   0.0000000   0.0000000
 NMagM=    0.0000000   0.0000000   0.0000000   0.0000000   0.0000000   0.0000000   0.0000000   0.0000000   0.0000000   0.0000000

  Atom        41          42          43          44          45          46          47          48          49          50
 IAtWgt=          12          12          12          12          12          12          12          12          12          12
 AtmWgt=  12.0000000  12.0000000  12.0000000  12.0000000  12.0000000  12.0000000  12.0000000  12.0000000  12.0000000  12.0000000
 NucSpn=           0           0           0           0           0           0           0           0           0           0
 AtZEff=   0.0000000   0.0000000   0.0000000   0.0000000   0.0000000   0.0000000   0.0000000   0.0000000   0.0000000   0.0000000
 NQMom=    0.0000000   0.0000000   0.0000000   0.0000000   0.0000000   0.0000000   0.0000000   0.0000000   0.0000000   0.0000000
 NMagM=    0.0000000   0.0000000   0.0000000   0.0000000   0.0000000   0.0000000   0.0000000   0.0000000   0.0000000   0.0000000

  Atom        51          52          53          54          55          56          57          58          59          60
 IAtWgt=          12          12          12          12          12          12          12          12          12          12
 AtmWgt=  12.0000000  12.0000000  12.0000000  12.0000000  12.0000000  12.0000000  12.0000000  12.0000000  12.0000000  12.0000000
 NucSpn=           0           0           0           0           0           0           0           0           0           0
 AtZEff=   0.0000000   0.0000000   0.0000000   0.0000000   0.0000000   0.0000000   0.0000000   0.0000000   0.0000000   0.0000000
 NQMom=    0.0000000   0.0000000   0.0000000   0.0000000   0.0000000   0.0000000   0.0000000   0.0000000   0.0000000   0.0000000
 NMagM=    0.0000000   0.0000000   0.0000000   0.0000000   0.0000000   0.0000000   0.0000000   0.0000000   0.0000000   0.0000000

  Atom        61          62          63          64          65          66          67          68          69          70
 IAtWgt=          12          12          12          12          12          12          12          12          12          12
 AtmWgt=  12.0000000  12.0000000  12.0000000  12.0000000  12.0000000  12.0000000  12.0000000  12.0000000  12.0000000  12.0000000
 NucSpn=           0           0           0           0           0           0           0           0           0           0
 AtZEff=   0.0000000   0.0000000   0.0000000   0.0000000   0.0000000   0.0000000   0.0000000   0.0000000   0.0000000   0.0000000
 NQMom=    0.0000000   0.0000000   0.0000000   0.0000000   0.0000000   0.0000000   0.0000000   0.0000000   0.0000000   0.0000000
 NMagM=    0.0000000   0.0000000   0.0000000   0.0000000   0.0000000   0.0000000   0.0000000   0.0000000   0.0000000   0.0000000

  Atom        71          72          73          74          75          76          77          78          79          80
 IAtWgt=          12          12          12          12          12          12          12           1           1           1
 AtmWgt=  12.0000000  12.0000000  12.0000000  12.0000000  12.0000000  12.0000000  12.0000000   1.0078250   1.0078250   1.0078250
 NucSpn=           0           0           0           0           0           0           0           1           1           1
 AtZEff=   0.0000000   0.0000000   0.0000000   0.0000000   0.0000000   0.0000000   0.0000000   0.0000000   0.0000000   0.0000000
 NQMom=    0.0000000   0.0000000   0.0000000   0.0000000   0.0000000   0.0000000   0.0000000   0.0000000   0.0000000   0.0000000
 NMagM=    0.0000000   0.0000000   0.0000000   0.0000000   0.0000000   0.0000000   0.0000000   2.7928460   2.7928460   2.7928460

  Atom        81          82          83          84          85          86          87          88          89          90
 IAtWgt=           1           1           1           1           1           1           1           1           1          16
 AtmWgt=   1.0078250   1.0078250   1.0078250   1.0078250   1.0078250   1.0078250   1.0078250   1.0078250   1.0078250  15.9949146
 NucSpn=           1           1           1           1           1           1           1           1           1           0
 AtZEff=   0.0000000   0.0000000   0.0000000   0.0000000   0.0000000   0.0000000   0.0000000   0.0000000   0.0000000   0.0000000
 NQMom=    0.0000000   0.0000000   0.0000000   0.0000000   0.0000000   0.0000000   0.0000000   0.0000000   0.0000000   0.0000000
 NMagM=    2.7928460   2.7928460   2.7928460   2.7928460   2.7928460   2.7928460   2.7928460   2.7928460   2.7928460   0.0000000

  Atom        91          92          93          94          95          96          97          98          99         100
 IAtWgt=          12          16          12          16          16          12          12           1           1           1
 AtmWgt=  12.0000000  15.9949146  12.0000000  15.9949146  15.9949146  12.0000000  12.0000000   1.0078250   1.0078250   1.0078250
 NucSpn=           0           0           0           0           0           0           0           1           1           1
 AtZEff=   0.0000000   0.0000000   0.0000000   0.0000000   0.0000000   0.0000000   0.0000000   0.0000000   0.0000000   0.0000000
 NQMom=    0.0000000   0.0000000   0.0000000   0.0000000   0.0000000   0.0000000   0.0000000   0.0000000   0.0000000   0.0000000
 NMagM=    0.0000000   0.0000000   0.0000000   0.0000000   0.0000000   0.0000000   0.0000000   2.7928460   2.7928460   2.7928460

  Atom       101         102         103         104         105         106         107         108         109         110
 IAtWgt=           1           1           1           1           1           1           1           1           1           1
 AtmWgt=   1.0078250   1.0078250   1.0078250   1.0078250   1.0078250   1.0078250   1.0078250   1.0078250   1.0078250   1.0078250
 NucSpn=           1           1           1           1           1           1           1           1           1           1
 AtZEff=   0.0000000   0.0000000   0.0000000   0.0000000   0.0000000   0.0000000   0.0000000   0.0000000   0.0000000   0.0000000
 NQMom=    0.0000000   0.0000000   0.0000000   0.0000000   0.0000000   0.0000000   0.0000000   0.0000000   0.0000000   0.0000000
 NMagM=    2.7928460   2.7928460   2.7928460   2.7928460   2.7928460   2.7928460   2.7928460   2.7928460   2.7928460   2.7928460

  Atom       111         112         113         114         115         116         117         118         119         120
 IAtWgt=           1           1           1           1           1           1           1           1           1           1
 AtmWgt=   1.0078250   1.0078250   1.0078250   1.0078250   1.0078250   1.0078250   1.0078250   1.0078250   1.0078250   1.0078250
 NucSpn=           1           1           1           1           1           1           1           1           1           1
 AtZEff=   0.0000000   0.0000000   0.0000000   0.0000000   0.0000000   0.0000000   0.0000000   0.0000000   0.0000000   0.0000000
 NQMom=    0.0000000   0.0000000   0.0000000   0.0000000   0.0000000   0.0000000   0.0000000   0.0000000   0.0000000   0.0000000
 NMagM=    2.7928460   2.7928460   2.7928460   2.7928460   2.7928460   2.7928460   2.7928460   2.7928460   2.7928460   2.7928460

  Atom       121         122         123         124         125         126         127         128         129         130
 IAtWgt=           1           1           1           1           1          16           1           1           1           1
 AtmWgt=   1.0078250   1.0078250   1.0078250   1.0078250   1.0078250  15.9949146   1.0078250   1.0078250   1.0078250   1.0078250
 NucSpn=           1           1           1           1           1           0           1           1           1           1
 AtZEff=   0.0000000   0.0000000   0.0000000   0.0000000   0.0000000   0.0000000   0.0000000   0.0000000   0.0000000   0.0000000
 NQMom=    0.0000000   0.0000000   0.0000000   0.0000000   0.0000000   0.0000000   0.0000000   0.0000000   0.0000000   0.0000000
 NMagM=    2.7928460   2.7928460   2.7928460   2.7928460   2.7928460   0.0000000   2.7928460   2.7928460   2.7928460   2.7928460

  Atom       131         132         133         134         135         136         137         138         139         140
 IAtWgt=           1          16           1          16           1           1           1           1           1          16
 AtmWgt=   1.0078250  15.9949146   1.0078250  15.9949146   1.0078250   1.0078250   1.0078250   1.0078250   1.0078250  15.9949146
 NucSpn=           1           0           1           0           1           1           1           1           1           0
 AtZEff=   0.0000000   0.0000000   0.0000000   0.0000000   0.0000000   0.0000000   0.0000000   0.0000000   0.0000000   0.0000000
 NQMom=    0.0000000   0.0000000   0.0000000   0.0000000   0.0000000   0.0000000   0.0000000   0.0000000   0.0000000   0.0000000
 NMagM=    2.7928460   0.0000000   2.7928460   0.0000000   2.7928460   2.7928460   2.7928460   2.7928460   2.7928460   0.0000000

  Atom       141         142         143         144         145         146         147         148         149         150
 IAtWgt=           1          16          12          16          12          16          12          16          12           1
 AtmWgt=   1.0078250  15.9949146  12.0000000  15.9949146  12.0000000  15.9949146  12.0000000  15.9949146  12.0000000   1.0078250
 NucSpn=           1           0           0           0           0           0           0           0           0           1
 AtZEff=   0.0000000   0.0000000   0.0000000   0.0000000   0.0000000   0.0000000   0.0000000   0.0000000   0.0000000   0.0000000
 NQMom=    0.0000000   0.0000000   0.0000000   0.0000000   0.0000000   0.0000000   0.0000000   0.0000000   0.0000000   0.0000000
 NMagM=    2.7928460   0.0000000   0.0000000   0.0000000   0.0000000   0.0000000   0.0000000   0.0000000   0.0000000   2.7928460

  Atom       151         152         153         154         155         156         157         158         159         160
 IAtWgt=           1           1           1           1           1           1           1           1           1           1
 AtmWgt=   1.0078250   1.0078250   1.0078250   1.0078250   1.0078250   1.0078250   1.0078250   1.0078250   1.0078250   1.0078250
 NucSpn=           1           1           1           1           1           1           1           1           1           1
 AtZEff=   0.0000000   0.0000000   0.0000000   0.0000000   0.0000000   0.0000000   0.0000000   0.0000000   0.0000000   0.0000000
 NQMom=    0.0000000   0.0000000   0.0000000   0.0000000   0.0000000   0.0000000   0.0000000   0.0000000   0.0000000   0.0000000
 NMagM=    2.7928460   2.7928460   2.7928460   2.7928460   2.7928460   2.7928460   2.7928460   2.7928460   2.7928460   2.7928460

  Atom       161         162         163         164         165         166         167         168         169         170
 IAtWgt=           1          12          12          12          12           1           1           1           1           1
 AtmWgt=   1.0078250  12.0000000  12.0000000  12.0000000  12.0000000   1.0078250   1.0078250   1.0078250   1.0078250   1.0078250
 NucSpn=           1           0           0           0           0           1           1           1           1           1
 AtZEff=   0.0000000   0.0000000   0.0000000   0.0000000   0.0000000   0.0000000   0.0000000   0.0000000   0.0000000   0.0000000
 NQMom=    0.0000000   0.0000000   0.0000000   0.0000000   0.0000000   0.0000000   0.0000000   0.0000000   0.0000000   0.0000000
 NMagM=    2.7928460   0.0000000   0.0000000   0.0000000   0.0000000   2.7928460   2.7928460   2.7928460   2.7928460   2.7928460

  Atom       171         172         173         174         175         176         177
 IAtWgt=           1           1           1           1           1           1           1
 AtmWgt=   1.0078250   1.0078250   1.0078250   1.0078250   1.0078250   1.0078250   1.0078250
 NucSpn=           1           1           1           1           1           1           1
 AtZEff=   0.0000000   0.0000000   0.0000000   0.0000000   0.0000000   0.0000000   0.0000000
 NQMom=    0.0000000   0.0000000   0.0000000   0.0000000   0.0000000   0.0000000   0.0000000
 NMagM=    2.7928460   2.7928460   2.7928460   2.7928460   2.7928460   2.7928460   2.7928460
 Leave Link  101 at Tue Feb  3 01:51:22 2015, MaxMem= 2147483648 cpu:       4.6
 (Enter /opt/g09/l202.exe)
 Stoichiometry    C85H76N4O12
 Framework group  C1[X(C85H76N4O12)]
 Deg. of freedom   525
 Full point group                 C1      NOp   1
 Largest Abelian subgroup         C1      NOp   1
 Largest concise Abelian subgroup C1      NOp   1
                         Standard orientation:                         
 ---------------------------------------------------------------------
 Center     Atomic      Atomic             Coordinates (Angstroms)
 Number     Number       Type             X           Y           Z
 ---------------------------------------------------------------------
      1          6           0       -0.020812   -0.011012    0.254683
      2          6           0        0.536287   -1.043583    1.241990
      3          6           0        0.308444   -0.630940    2.569972
      4          6           0       -0.395979    0.652381    2.551170
      5          6           0       -0.595425    1.041096    1.211448
      6          6           0        1.025849    0.551375   -0.714579
      7          6           0        0.634624    0.327000   -2.049034
      8          6           0       -0.650907   -0.373411   -2.052427
      9          6           0       -1.054175   -0.588289   -0.720298
     10          6           0        2.217392    1.189445   -0.409139
     11          6           0        3.046144    1.639238   -1.455454
     12          6           0        2.648196    1.425371   -2.789783
     13          6           0        1.458330    0.766233   -3.088647
     14          6           0       -0.859681    1.475044    3.580255
     15          6           0       -1.503251    2.670385    3.266820
     16          6           0       -1.707915    3.056446    1.927914
     17          6           0       -1.245486    2.221462    0.891504
     18          6           0        1.194776   -2.228753    0.957699
     19          6           0        1.635977   -3.043612    2.018777
     20          6           0        1.401989   -2.633975    3.345719
     21          6           0        0.750610   -1.434370    3.623739
     22          6           0       -1.465341   -0.820505   -3.096141
     23          6           0       -2.656704   -1.479180   -2.803654
     24          6           0       -3.065123   -1.687241   -1.471067
     25          6           0       -2.246575   -1.227518   -0.420728
     26          7           0        4.266837    2.304481   -1.171819
     27          7           0       -2.376189    4.269948    1.624613
     28          7           0        2.311288   -4.263133    1.754156
     29          7           0       -4.284736   -2.354753   -1.194529
     30          6           0       -5.435623   -2.107208   -1.996289
     31          6           0        1.857066   -5.123471    0.715738
     32          6           0       -4.385156   -3.240399   -0.085935
     33          6           0        3.428246   -4.645505    2.547045
     34          6           0        4.348322    3.220355   -0.085585
     35          6           0        5.427677    2.032699   -1.946946
     36          6           0       -3.488060    4.686955    2.407224
     37          6           0       -1.901401    5.106485    0.574988
     38          6           0       -3.607959    6.011089    2.844651
     39          6           0       -4.711986    6.429128    3.591879
     40          6           0       -5.710483    5.511865    3.935453
     41          6           0       -5.593037    4.180087    3.510799
     42          6           0       -4.505386    3.777014    2.749560
     43          6           0        5.441667    3.205067    0.787443
     44          6           0        5.542831    4.120130    1.837751
     45          6           0        4.526720    5.057902    2.047150
     46          6           0        3.419277    5.070653    1.186000
     47          6           0        3.336322    4.173768    0.129978
     48          6           0        6.269095    3.080012   -2.360550
     49          6           0        7.418386    2.832952   -3.101217
     50          6           0        7.750769    1.510174   -3.471949
     51          6           0        6.900927    0.471600   -3.084510
     52          6           0        5.759957    0.726115   -2.319467
     53          6           0       -2.818886    5.698121   -0.316406
     54          6           0       -2.383474    6.531822   -1.340770
     55          6           0       -0.996390    6.773117   -1.513674
     56          6           0       -0.095714    6.173505   -0.637357
     57          6           0       -0.540076    5.355128    0.408952
     58          6           0        0.497961   -5.366826    0.522623
     59          6           0        0.073008   -6.209977   -0.511697
     60          6           0        0.989823   -6.840777   -1.348601
     61          6           0        2.373830   -6.606252   -1.147080
     62          6           0        2.790912   -5.746690   -0.136334
     63          6           0        4.427741   -3.721046    2.873416
     64          6           0        5.523414   -4.086627    3.658459
     65          6           0        5.649250   -5.404234    4.111777
     66          6           0        4.658957   -6.340104    3.779715
     67          6           0        3.560626   -5.964202    3.018960
     68          6           0       -3.377508   -4.187936    0.173780
     69          6           0       -3.480550   -5.057480    1.250706
     70          6           0       -4.603939   -5.022554    2.090475
     71          6           0       -5.616270   -4.091367    1.837195
     72          6           0       -5.495607   -3.204108    0.765044
     73          6           0       -5.794982   -0.811990   -2.364320
     74          6           0       -6.924478   -0.593745   -3.162811
     75          6           0       -7.723897   -1.653913   -3.581476
     76          6           0       -7.368350   -2.973184   -3.199533
     77          6           0       -6.230676   -3.187544   -2.429038
     78          1           0       -2.555753   -1.373023    0.609434
     79          1           0        1.375125   -2.534821   -0.068005
     80          1           0        1.735380   -3.270209    4.159214
     81          1           0        0.579049   -1.142558    4.656903
     82          1           0       -0.711351    1.201819    4.622068
     83          1           0       -1.852763    3.321196    4.061735
     84          1           0       -1.172834   -0.674585   -4.133046
     85          1           0       -3.286463   -1.841567   -3.609502
     86          1           0        1.173971    0.614517   -4.126964
     87          1           0        3.284551    1.783639   -3.592452
     88          1           0       -1.404279    2.508359   -0.143238
     89          1           0        2.517867    1.342949    0.622497
     90          8           0       -4.613567   -5.931346    3.112661
     91          6           0       -5.712568   -5.915625    4.007054
     92          8           0        6.684004   -5.874643    4.874176
     93          6           0        7.708021   -4.966292    5.239618
     94          8           0       -6.827469    5.807676    4.668989
     95          8           0        4.517811    5.992977    3.045248
     96          6           0        5.609109    6.012070    3.949012
     97          6           0       -6.988150    7.137716    5.129883
     98          1           0       -6.378179    3.479087    3.777152
     99          1           0       -4.432470    2.746928    2.414948
    100          1           0        6.230659    2.474245    0.640614
    101          1           0        6.410036    4.079574    2.487024
    102          1           0       -4.770263    7.464296    3.909138
    103          1           0       -2.830952    6.726293    2.593579
    104          1           0        2.638890    5.806142    1.357498
    105          1           0        2.477324    4.200032   -0.533390
    106          1           0       -6.280220   -2.476070    0.584452
    107          1           0       -6.494179   -4.032543    2.470706
    108          1           0       -2.703077   -5.787281    1.456445
    109          1           0       -2.505517   -4.230377   -0.471661
    110          1           0        6.273157   -3.339679    3.893976
    111          1           0        4.345241   -2.699694    2.514998
    112          1           0        4.763016   -7.357406    4.144584
    113          1           0        2.793097   -6.693811    2.780734
    114          1           0        7.316001   -4.132915    5.838486
    115          1           0        8.224635   -4.561312    4.358651
    116          1           0        8.417574   -5.538450    5.840601
    117          1           0        6.558487    6.213055    3.434096
    118          1           0        5.694363    5.066233    4.501077
    119          1           0        5.402962    6.821407    4.652136
    120          1           0       -7.928848    7.152798    5.683852
    121          1           0       -7.047762    7.851501    4.296810
    122          1           0       -6.169699    7.436797    5.798785
    123          1           0       -6.658943   -6.127904    3.490888
    124          1           0       -5.797203   -4.952182    4.527695
    125          1           0       -5.517166   -6.703267    4.737337
    126          8           0        3.209914   -7.256524   -2.006075
    127          1           0        3.844425   -5.545517    0.011313
    128          1           0       -0.989303   -6.383374   -0.642228
    129          1           0       -0.234287   -4.897364    1.170680
    130          1           0       -5.195371    0.030059   -2.035632
    131          1           0       -7.181142    0.422648   -3.438910
    132          8           0       -8.196345   -3.957573   -3.652180
    133          1           0       -5.940118   -4.191608   -2.146534
    134          8           0       -3.202454    7.149384   -2.239509
    135          1           0       -3.874013    5.491891   -0.188156
    136          1           0        0.968078    6.352092   -0.746732
    137          1           0        0.179226    4.908271    1.086898
    138          1           0        5.125538   -0.098703   -2.012539
    139          1           0        7.131806   -0.553504   -3.351742
    140          8           0        8.235212    3.894505   -3.411275
    141          1           0        6.044277    4.107434   -2.095670
    142          8           0        0.674374   -7.688060   -2.371639
    143          6           0       -0.696674   -7.948920   -2.610227
    144          8           0        8.909238    1.351099   -4.184199
    145          6           0        9.304776    0.032521   -4.521853
    146          8           0       -0.662290    7.594328   -2.551456
    147          6           0        0.712537    7.859168   -2.764849
    148          8           0       -8.850094   -1.541878   -4.345074
    149          6           0       -9.250644   -0.242811   -4.740722
    150          1           0       -0.727385   -8.631082   -3.462116
    151          1           0       -1.246724   -7.031184   -2.860185
    152          1           0       -1.175800   -8.428139   -1.745217
    153          1           0      -10.159642   -0.376797   -5.330394
    154          1           0       -8.486290    0.247061   -5.359742
    155          1           0       -9.471576    0.395617   -3.874129
    156          1           0        0.758434    8.518214   -3.634031
    157          1           0        1.167582    8.365306   -1.902278
    158          1           0        1.274810    6.939392   -2.976795
    159          1           0        8.570309   -0.457618   -5.175352
    160          1           0        9.455512   -0.584167   -3.625812
    161          1           0       10.252107    0.131277   -5.055307
    162          6           0       -7.896447   -5.294949   -3.292902
    163          6           0       -4.598619    6.942870   -2.116129
    164          6           0        8.324371    4.228892   -4.797519
    165          6           0        4.605082   -7.073806   -1.840448
    166          1           0       -5.058174    7.531031   -2.912868
    167          1           0       -4.865015    5.885120   -2.246431
    168          1           0       -4.975728    7.289076   -1.144319
    169          1           0       -8.683527   -5.906497   -3.738226
    170          1           0       -7.900901   -5.432646   -2.203252
    171          1           0       -6.922591   -5.612829   -3.689607
    172          1           0        5.079179   -7.693712   -2.603911
    173          1           0        4.941442   -7.398944   -0.846763
    174          1           0        4.897718   -6.025749   -1.991685
    175          1           0        7.332935    4.467920   -5.205816
    176          1           0        8.774649    3.418916   -5.379305
    177          1           0        8.959419    5.116354   -4.852590
 ---------------------------------------------------------------------
 Rotational constants (GHZ):      0.0136686      0.0125891      0.0088793
 Leave Link  202 at Tue Feb  3 01:51:22 2015, MaxMem= 2147483648 cpu:       1.3
 (Enter /opt/g09/l301.exe)
 Standard basis: CC-pVDZ (5D, 7F)
 Ernie: Thresh=  0.10000D-02 Tol=  0.10000D-05 Strict=F.
 Ernie:  202 primitive shells out of 2602 were deleted.
 There are  1794 symmetry adapted basis functions of A   symmetry.
 Integral buffers will be    131072 words long.
 Raffenetti 2 integral format.
 Two-electron integral symmetry is turned on.
  1794 basis functions,  3865 primitive gaussians,  1895 cartesian basis functions
   355 alpha electrons      355 beta electrons
       nuclear repulsion energy     18879.3730797073 Hartrees.
 IExCor=  402 DFT=T Ex+Corr=B3LYP ExCW=0 ScaHFX=  0.200000
 ScaDFX=  0.800000  0.720000  1.000000  0.810000 ScalE2=  1.000000  1.000000
 IRadAn=      0 IRanWt=     -1 IRanGd=            0 ICorTp=0
 NAtoms=  177 NActive=  177 NUniq=  177 SFac= 7.50D-01 NAtFMM=   80 NAOKFM=T Big=T
 Leave Link  301 at Tue Feb  3 01:51:22 2015, MaxMem= 2147483648 cpu:       1.4
 (Enter /opt/g09/l302.exe)
 NPDir=0 NMtPBC=     1 NCelOv=     1 NCel=       1 NClECP=     1 NCelD=      1
         NCelK=      1 NCelE2=     1 NClLst=     1 CellRange=     0.0.
 One-electron integrals computed using PRISM.
 NBasis=  1794 RedAO= T  NBF=  1794
 NBsUse=  1794 1.00D-06 NBFU=  1794
 Precomputing XC quadrature grid using
 IXCGrd= 2 IRadAn=           0 IRanWt=          -1 IRanGd=           0 AccXCQ= 1.00D-10.
 NRdTot=   11617 NPtTot=     1489478 NUsed=     1573111 NTot=     1573143
 NSgBfM=  1278  1292  1297  1305  1306 NAtAll=   177   168.
 Leave Link  302 at Tue Feb  3 01:51:49 2015, MaxMem= 2147483648 cpu:     626.2
 (Enter /opt/g09/l303.exe)
 DipDrv:  MaxL=1.
 Leave Link  303 at Tue Feb  3 01:51:51 2015, MaxMem= 2147483648 cpu:      44.3
 (Enter /opt/g09/l401.exe)
 Harris functional with IExCor=  402 diagonalized for initial guess.
 ExpMin= 1.22D-01 ExpMax= 1.17D+04 ExpMxC= 4.01D+02 IAcc=1 IRadAn=         1 AccDes= 0.00D+00
 HarFok:  IExCor=  402 AccDes= 0.00D+00 IRadAn=         1 IDoV= 1
 ScaDFX=  1.000000  1.000000  1.000000  1.000000
 FoFCou: FMM=F IPFlag=           0 FMFlag=      100000 FMFlg1=        2001
         NFxFlg=           0 DoJE=T BraDBF=F KetDBF=T FulRan=T
         Omega=  0.000000  0.000000  1.000000  0.000000  0.000000 ICntrl=     500 IOpCl=  0
         NMat0=    1 NMatS0=    1 NMatT0=    0 NMatD0=    1 NMtDS0=    0 NMtDT0=    0
         I1Cent=           4 NGrid=           0.
 Petite list used in FoFCou.
 Harris En= -4406.73857153260    
 Initial guess orbital symmetries:
       Occupied  (A) (A) (A) (A) (A) (A) (A) (A) (A) (A) (A) (A)
                 (A) (A) (A) (A) (A) (A) (A) (A) (A) (A) (A) (A)
                 (A) (A) (A) (A) (A) (A) (A) (A) (A) (A) (A) (A)
                 (A) (A) (A) (A) (A) (A) (A) (A) (A) (A) (A) (A)
                 (A) (A) (A) (A) (A) (A) (A) (A) (A) (A) (A) (A)
                 (A) (A) (A) (A) (A) (A) (A) (A) (A) (A) (A) (A)
                 (A) (A) (A) (A) (A) (A) (A) (A) (A) (A) (A) (A)
                 (A) (A) (A) (A) (A) (A) (A) (A) (A) (A) (A) (A)
                 (A) (A) (A) (A) (A) (A) (A) (A) (A) (A) (A) (A)
                 (A) (A) (A) (A) (A) (A) (A) (A) (A) (A) (A) (A)
                 (A) (A) (A) (A) (A) (A) (A) (A) (A) (A) (A) (A)
                 (A) (A) (A) (A) (A) (A) (A) (A) (A) (A) (A) (A)
                 (A) (A) (A) (A) (A) (A) (A) (A) (A) (A) (A) (A)
                 (A) (A) (A) (A) (A) (A) (A) (A) (A) (A) (A) (A)
                 (A) (A) (A) (A) (A) (A) (A) (A) (A) (A) (A) (A)
                 (A) (A) (A) (A) (A) (A) (A) (A) (A) (A) (A) (A)
                 (A) (A) (A) (A) (A) (A) (A) (A) (A) (A) (A) (A)
                 (A) (A) (A) (A) (A) (A) (A) (A) (A) (A) (A) (A)
                 (A) (A) (A) (A) (A) (A) (A) (A) (A) (A) (A) (A)
                 (A) (A) (A) (A) (A) (A) (A) (A) (A) (A) (A) (A)
                 (A) (A) (A) (A) (A) (A) (A) (A) (A) (A) (A) (A)
                 (A) (A) (A) (A) (A) (A) (A) (A) (A) (A) (A) (A)
                 (A) (A) (A) (A) (A) (A) (A) (A) (A) (A) (A) (A)
                 (A) (A) (A) (A) (A) (A) (A) (A) (A) (A) (A) (A)
                 (A) (A) (A) (A) (A) (A) (A) (A) (A) (A) (A) (A)
                 (A) (A) (A) (A) (A) (A) (A) (A) (A) (A) (A) (A)
                 (A) (A) (A) (A) (A) (A) (A) (A) (A) (A) (A) (A)
                 (A) (A) (A) (A) (A) (A) (A) (A) (A) (A) (A) (A)
                 (A) (A) (A) (A) (A) (A) (A) (A) (A) (A) (A) (A)
                 (A) (A) (A) (A) (A) (A) (A)
       Virtual   (A) (A) (A) (A) (A) (A) (A) (A) (A) (A) (A) (A)
                 (A) (A) (A) (A) (A) (A) (A) (A) (A) (A) (A) (A)
                 (A) (A) (A) (A) (A) (A) (A) (A) (A) (A) (A) (A)
                 (A) (A) (A) (A) (A) (A) (A) (A) (A) (A) (A) (A)
                 (A) (A) (A) (A) (A) (A) (A) (A) (A) (A) (A) (A)
                 (A) (A) (A) (A) (A) (A) (A) (A) (A) (A) (A) (A)
                 (A) (A) (A) (A) (A) (A) (A) (A) (A) (A) (A) (A)
                 (A) (A) (A) (A) (A) (A) (A) (A) (A) (A) (A) (A)
                 (A) (A) (A) (A) (A) (A) (A) (A) (A) (A) (A) (A)
                 (A) (A) (A) (A) (A) (A) (A) (A) (A) (A) (A) (A)
                 (A) (A) (A) (A) (A) (A) (A) (A) (A) (A) (A) (A)
                 (A) (A) (A) (A) (A) (A) (A) (A) (A) (A) (A) (A)
                 (A) (A) (A) (A) (A) (A) (A) (A) (A) (A) (A) (A)
                 (A) (A) (A) (A) (A) (A) (A) (A) (A) (A) (A) (A)
                 (A) (A) (A) (A) (A) (A) (A) (A) (A) (A) (A) (A)
                 (A) (A) (A) (A) (A) (A) (A) (A) (A) (A) (A) (A)
                 (A) (A) (A) (A) (A) (A) (A) (A) (A) (A) (A) (A)
                 (A) (A) (A) (A) (A) (A) (A) (A) (A) (A) (A) (A)
                 (A) (A) (A) (A) (A) (A) (A) (A) (A) (A) (A) (A)
                 (A) (A) (A) (A) (A) (A) (A) (A) (A) (A) (A) (A)
                 (A) (A) (A) (A) (A) (A) (A) (A) (A) (A) (A) (A)
                 (A) (A) (A) (A) (A) (A) (A) (A) (A) (A) (A) (A)
                 (A) (A) (A) (A) (A) (A) (A) (A) (A) (A) (A) (A)
                 (A) (A) (A) (A) (A) (A) (A) (A) (A) (A) (A) (A)
                 (A) (A) (A) (A) (A) (A) (A) (A) (A) (A) (A) (A)
                 (A) (A) (A) (A) (A) (A) (A) (A) (A) (A) (A) (A)
                 (A) (A) (A) (A) (A) (A) (A) (A) (A) (A) (A) (A)
                 (A) (A) (A) (A) (A) (A) (A) (A) (A) (A) (A) (A)
                 (A) (A) (A) (A) (A) (A) (A) (A) (A) (A) (A) (A)
                 (A) (A) (A) (A) (A) (A) (A) (A) (A) (A) (A) (A)
                 (A) (A) (A) (A) (A) (A) (A) (A) (A) (A) (A) (A)
                 (A) (A) (A) (A) (A) (A) (A) (A) (A) (A) (A) (A)
                 (A) (A) (A) (A) (A) (A) (A) (A) (A) (A) (A) (A)
                 (A) (A) (A) (A) (A) (A) (A) (A) (A) (A) (A) (A)
                 (A) (A) (A) (A) (A) (A) (A) (A) (A) (A) (A) (A)
                 (A) (A) (A) (A) (A) (A) (A) (A) (A) (A) (A) (A)
                 (A) (A) (A) (A) (A) (A) (A) (A) (A) (A) (A) (A)
                 (A) (A) (A) (A) (A) (A) (A) (A) (A) (A) (A) (A)
                 (A) (A) (A) (A) (A) (A) (A) (A) (A) (A) (A) (A)
                 (A) (A) (A) (A) (A) (A) (A) (A) (A) (A) (A) (A)
                 (A) (A) (A) (A) (A) (A) (A) (A) (A) (A) (A) (A)
                 (A) (A) (A) (A) (A) (A) (A) (A) (A) (A) (A) (A)
                 (A) (A) (A) (A) (A) (A) (A) (A) (A) (A) (A) (A)
                 (A) (A) (A) (A) (A) (A) (A) (A) (A) (A) (A) (A)
                 (A) (A) (A) (A) (A) (A) (A) (A) (A) (A) (A) (A)
                 (A) (A) (A) (A) (A) (A) (A) (A) (A) (A) (A) (A)
                 (A) (A) (A) (A) (A) (A) (A) (A) (A) (A) (A) (A)
                 (A) (A) (A) (A) (A) (A) (A) (A) (A) (A) (A) (A)
                 (A) (A) (A) (A) (A) (A) (A) (A) (A) (A) (A) (A)
                 (A) (A) (A) (A) (A) (A) (A) (A) (A) (A) (A) (A)
                 (A) (A) (A) (A) (A) (A) (A) (A) (A) (A) (A) (A)
                 (A) (A) (A) (A) (A) (A) (A) (A) (A) (A) (A) (A)
                 (A) (A) (A) (A) (A) (A) (A) (A) (A) (A) (A) (A)
                 (A) (A) (A) (A) (A) (A) (A) (A) (A) (A) (A) (A)
                 (A) (A) (A) (A) (A) (A) (A) (A) (A) (A) (A) (A)
                 (A) (A) (A) (A) (A) (A) (A) (A) (A) (A) (A) (A)
                 (A) (A) (A) (A) (A) (A) (A) (A) (A) (A) (A) (A)
                 (A) (A) (A) (A) (A) (A) (A) (A) (A) (A) (A) (A)
                 (A) (A) (A) (A) (A) (A) (A) (A) (A) (A) (A) (A)
                 (A) (A) (A) (A) (A) (A) (A) (A) (A) (A) (A) (A)
                 (A) (A) (A) (A) (A) (A) (A) (A) (A) (A) (A) (A)
                 (A) (A) (A) (A) (A) (A) (A) (A) (A) (A) (A) (A)
                 (A) (A) (A) (A) (A) (A) (A) (A) (A) (A) (A) (A)
                 (A) (A) (A) (A) (A) (A) (A) (A) (A) (A) (A) (A)
                 (A) (A) (A) (A) (A) (A) (A) (A) (A) (A) (A) (A)
                 (A) (A) (A) (A) (A) (A) (A) (A) (A) (A) (A) (A)
                 (A) (A) (A) (A) (A) (A) (A) (A) (A) (A) (A) (A)
                 (A) (A) (A) (A) (A) (A) (A) (A) (A) (A) (A) (A)
                 (A) (A) (A) (A) (A) (A) (A) (A) (A) (A) (A) (A)
                 (A) (A) (A) (A) (A) (A) (A) (A) (A) (A) (A) (A)
                 (A) (A) (A) (A) (A) (A) (A) (A) (A) (A) (A) (A)
                 (A) (A) (A) (A) (A) (A) (A) (A) (A) (A) (A) (A)
                 (A) (A) (A) (A) (A) (A) (A) (A) (A) (A) (A) (A)
                 (A) (A) (A) (A) (A) (A) (A) (A) (A) (A) (A) (A)
                 (A) (A) (A) (A) (A) (A) (A) (A) (A) (A) (A) (A)
                 (A) (A) (A) (A) (A) (A) (A) (A) (A) (A) (A) (A)
                 (A) (A) (A) (A) (A) (A) (A) (A) (A) (A) (A) (A)
                 (A) (A) (A) (A) (A) (A) (A) (A) (A) (A) (A) (A)
                 (A) (A) (A) (A) (A) (A) (A) (A) (A) (A) (A) (A)
                 (A) (A) (A) (A) (A) (A) (A) (A) (A) (A) (A) (A)
                 (A) (A) (A) (A) (A) (A) (A) (A) (A) (A) (A) (A)
                 (A) (A) (A) (A) (A) (A) (A) (A) (A) (A) (A) (A)
                 (A) (A) (A) (A) (A) (A) (A) (A) (A) (A) (A) (A)
                 (A) (A) (A) (A) (A) (A) (A) (A) (A) (A) (A) (A)
                 (A) (A) (A) (A) (A) (A) (A) (A) (A) (A) (A) (A)
                 (A) (A) (A) (A) (A) (A) (A) (A) (A) (A) (A) (A)
                 (A) (A) (A) (A) (A) (A) (A) (A) (A) (A) (A) (A)
                 (A) (A) (A) (A) (A) (A) (A) (A) (A) (A) (A) (A)
                 (A) (A) (A) (A) (A) (A) (A) (A) (A) (A) (A) (A)
                 (A) (A) (A) (A) (A) (A) (A) (A) (A) (A) (A) (A)
                 (A) (A) (A) (A) (A) (A) (A) (A) (A) (A) (A) (A)
                 (A) (A) (A) (A) (A) (A) (A) (A) (A) (A) (A) (A)
                 (A) (A) (A) (A) (A) (A) (A) (A) (A) (A) (A) (A)
                 (A) (A) (A) (A) (A) (A) (A) (A) (A) (A) (A) (A)
                 (A) (A) (A) (A) (A) (A) (A) (A) (A) (A) (A) (A)
                 (A) (A) (A) (A) (A) (A) (A) (A) (A) (A) (A) (A)
                 (A) (A) (A) (A) (A) (A) (A) (A) (A) (A) (A) (A)
                 (A) (A) (A) (A) (A) (A) (A) (A) (A) (A) (A) (A)
                 (A) (A) (A) (A) (A) (A) (A) (A) (A) (A) (A) (A)
                 (A) (A) (A) (A) (A) (A) (A) (A) (A) (A) (A) (A)
                 (A) (A) (A) (A) (A) (A) (A) (A) (A) (A) (A) (A)
                 (A) (A) (A) (A) (A) (A) (A) (A) (A) (A) (A) (A)
                 (A) (A) (A) (A) (A) (A) (A) (A) (A) (A) (A) (A)
                 (A) (A) (A) (A) (A) (A) (A) (A) (A) (A) (A) (A)
                 (A) (A) (A) (A) (A) (A) (A) (A) (A) (A) (A) (A)
                 (A) (A) (A) (A) (A) (A) (A) (A) (A) (A) (A) (A)
                 (A) (A) (A) (A) (A) (A) (A) (A) (A) (A) (A) (A)
                 (A) (A) (A) (A) (A) (A) (A) (A) (A) (A) (A) (A)
                 (A) (A) (A) (A) (A) (A) (A) (A) (A) (A) (A) (A)
                 (A) (A) (A) (A) (A) (A) (A) (A) (A) (A) (A) (A)
                 (A) (A) (A) (A) (A) (A) (A) (A) (A) (A) (A) (A)
                 (A) (A) (A) (A) (A) (A) (A) (A) (A) (A) (A) (A)
                 (A) (A) (A) (A) (A) (A) (A) (A) (A) (A) (A) (A)
                 (A) (A) (A) (A) (A) (A) (A) (A) (A) (A) (A) (A)
                 (A) (A) (A) (A) (A) (A) (A) (A) (A) (A) (A) (A)
                 (A) (A) (A) (A) (A) (A) (A) (A) (A) (A) (A) (A)
                 (A) (A) (A) (A) (A) (A) (A) (A) (A) (A) (A) (A)
                 (A) (A) (A) (A) (A) (A) (A) (A) (A) (A) (A) (A)
                 (A) (A) (A) (A) (A) (A) (A) (A) (A) (A) (A) (A)
                 (A) (A) (A) (A) (A) (A) (A) (A) (A) (A) (A)
 The electronic state of the initial guess is 1-A.
 Leave Link  401 at Tue Feb  3 01:52:16 2015, MaxMem= 2147483648 cpu:     614.7
 (Enter /opt/g09/l502.exe)
 Closed shell SCF:
 Requested convergence on RMS density matrix=1.00D-08 within 128 cycles.
 Requested convergence on MAX density matrix=1.00D-06.
 Requested convergence on             energy=1.00D-06.
 No special actions if energy rises.
 Using DIIS extrapolation, IDIIS=  1040.
 Integral symmetry usage will be decided dynamically.
      1571505 words used for storage of precomputed grid.
 IEnd=    12422558 IEndB=    12422558 NGot=  2147483648 MDV=  2138670651
 LenX=  2138670651 LenY=  2135077731
 Fock matrices will be formed incrementally for  20 cycles.
 Integral accuracy reduced to 1.0D-05 until final iterations.

 Cycle   1  Pass 0  IDiag  1:
 FoFCou: FMM=T IPFlag=           0 FMFlag=      100000 FMFlg1=        2001
         NFxFlg=           0 DoJE=F BraDBF=F KetDBF=F FulRan=T
         Omega=  0.000000  0.000000  1.000000  0.000000  0.000000 ICntrl=       0 IOpCl=  0
         NMat0=    1 NMatS0=    1 NMatT0=    0 NMatD0=    1 NMtDS0=    0 NMtDT0=    0
         I1Cent=           0 NGrid=           0.
 Symmetry not used in FoFCou.
 FMM levels:  10  Number of levels for PrismC:   9
 E= -4404.69401582002    
 DIIS: error= 2.34D-02 at cycle   1 NSaved=   1.
 NSaved= 1 IEnMin= 1 EnMin= -4404.69401582002     IErMin= 1 ErrMin= 2.34D-02
 ErrMax= 2.34D-02 EMaxC= 1.00D-01 BMatC= 1.69D+00 BMatP= 1.69D+00
 IDIUse=3 WtCom= 7.66D-01 WtEn= 2.34D-01
 Coeff-Com:  0.100D+01
 Coeff-En:   0.100D+01
 Coeff:      0.100D+01
 Gap=     0.152 Goal=   None    Shift=    0.000
 GapD=    0.152 DampG=1.000 DampE=0.500 DampFc=0.5000 IDamp=-1.
 Damping current iteration by 5.00D-01
 RMSDP=2.06D-03 MaxDP=1.97D-01              OVMax= 1.97D-01

 Cycle   2  Pass 0  IDiag  1:
 RMSU=  6.94D-04    CP:  9.62D-01
 E= -4405.59547798768     Delta-E=       -0.901462167665 Rises=F Damp=T
 DIIS: error= 3.76D-03 at cycle   2 NSaved=   2.
 NSaved= 2 IEnMin= 2 EnMin= -4405.59547798768     IErMin= 2 ErrMin= 3.76D-03
 ErrMax= 3.76D-03 EMaxC= 1.00D-01 BMatC= 9.36D-02 BMatP= 1.69D+00
 IDIUse=3 WtCom= 9.62D-01 WtEn= 3.76D-02
 Coeff-Com:  0.219D-01 0.978D+00
 Coeff-En:   0.674D-02 0.993D+00
 Coeff:      0.213D-01 0.979D+00
 Gap=     0.146 Goal=   None    Shift=    0.000
 RMSDP=6.39D-04 MaxDP=9.80D-02 DE=-9.01D-01 OVMax= 1.41D-01

 Cycle   3  Pass 0  IDiag  1:
 RMSU=  3.97D-04    CP:  9.39D-01  1.25D+00
 E= -4406.50490631014     Delta-E=       -0.909428322459 Rises=F Damp=F
 DIIS: error= 5.22D-03 at cycle   3 NSaved=   3.
 NSaved= 3 IEnMin= 3 EnMin= -4406.50490631014     IErMin= 2 ErrMin= 3.76D-03
 ErrMax= 5.22D-03 EMaxC= 1.00D-01 BMatC= 9.58D-02 BMatP= 9.36D-02
 IDIUse=3 WtCom= 9.48D-01 WtEn= 5.22D-02
 Coeff-Com: -0.323D-01 0.518D+00 0.514D+00
 Coeff-En:   0.000D+00 0.000D+00 0.100D+01
 Coeff:     -0.307D-01 0.491D+00 0.540D+00
 Gap=     0.135 Goal=   None    Shift=    0.000
 RMSDP=2.80D-04 MaxDP=2.67D-02 DE=-9.09D-01 OVMax= 7.68D-02

 Cycle   4  Pass 0  IDiag  1:
 RMSU=  1.49D-04    CP:  9.41D-01  1.23D+00  6.73D-01
 E= -4406.58063893184     Delta-E=       -0.075732621699 Rises=F Damp=F
 DIIS: error= 2.43D-03 at cycle   4 NSaved=   4.
 NSaved= 4 IEnMin= 4 EnMin= -4406.58063893184     IErMin= 4 ErrMin= 2.43D-03
 ErrMax= 2.43D-03 EMaxC= 1.00D-01 BMatC= 2.10D-02 BMatP= 9.36D-02
 IDIUse=3 WtCom= 9.76D-01 WtEn= 2.43D-02
 Coeff-Com: -0.180D-01 0.144D+00 0.339D+00 0.536D+00
 Coeff-En:   0.000D+00 0.000D+00 0.212D+00 0.788D+00
 Coeff:     -0.176D-01 0.140D+00 0.336D+00 0.542D+00
 Gap=     0.129 Goal=   None    Shift=    0.000
 RMSDP=1.14D-04 MaxDP=8.90D-03 DE=-7.57D-02 OVMax= 2.95D-02

 Cycle   5  Pass 0  IDiag  1:
 RMSU=  3.77D-05    CP:  9.41D-01  1.23D+00  7.56D-01  5.77D-01
 E= -4406.60072047059     Delta-E=       -0.020081538751 Rises=F Damp=F
 DIIS: error= 8.92D-04 at cycle   5 NSaved=   5.
 NSaved= 5 IEnMin= 5 EnMin= -4406.60072047059     IErMin= 5 ErrMin= 8.92D-04
 ErrMax= 8.92D-04 EMaxC= 1.00D-01 BMatC= 2.16D-03 BMatP= 2.10D-02
 IDIUse=3 WtCom= 9.91D-01 WtEn= 8.92D-03
 Coeff-Com: -0.786D-02 0.455D-01 0.170D+00 0.339D+00 0.454D+00
 Coeff-En:   0.000D+00 0.000D+00 0.000D+00 0.287D-01 0.971D+00
 Coeff:     -0.779D-02 0.451D-01 0.168D+00 0.336D+00 0.458D+00
 Gap=     0.130 Goal=   None    Shift=    0.000
 RMSDP=4.06D-05 MaxDP=6.18D-03 DE=-2.01D-02 OVMax= 1.19D-02

 Cycle   6  Pass 0  IDiag  1:
 RMSU=  1.88D-05    CP:  9.41D-01  1.24D+00  7.47D-01  6.25D-01  4.66D-01
 E= -4406.60265834600     Delta-E=       -0.001937875411 Rises=F Damp=F
 DIIS: error= 4.76D-04 at cycle   6 NSaved=   6.
 NSaved= 6 IEnMin= 6 EnMin= -4406.60265834600     IErMin= 6 ErrMin= 4.76D-04
 ErrMax= 4.76D-04 EMaxC= 1.00D-01 BMatC= 3.69D-04 BMatP= 2.16D-03
 IDIUse=3 WtCom= 9.95D-01 WtEn= 4.76D-03
 Coeff-Com: -0.196D-02 0.543D-02 0.538D-01 0.127D+00 0.312D+00 0.503D+00
 Coeff-En:   0.000D+00 0.000D+00 0.000D+00 0.000D+00 0.178D+00 0.822D+00
 Coeff:     -0.195D-02 0.541D-02 0.535D-01 0.126D+00 0.312D+00 0.505D+00
 Gap=     0.129 Goal=   None    Shift=    0.000
 RMSDP=1.72D-05 MaxDP=1.72D-03 DE=-1.94D-03 OVMax= 4.88D-03

 Cycle   7  Pass 0  IDiag  1:
 RMSU=  7.34D-06    CP:  9.41D-01  1.24D+00  7.53D-01  6.24D-01  6.06D-01
                    CP:  5.88D-01
 E= -4406.60302547197     Delta-E=       -0.000367125973 Rises=F Damp=F
 DIIS: error= 1.37D-04 at cycle   7 NSaved=   7.
 NSaved= 7 IEnMin= 7 EnMin= -4406.60302547197     IErMin= 7 ErrMin= 1.37D-04
 ErrMax= 1.37D-04 EMaxC= 1.00D-01 BMatC= 6.57D-05 BMatP= 3.69D-04
 IDIUse=3 WtCom= 9.99D-01 WtEn= 1.37D-03
 Coeff-Com: -0.526D-03-0.106D-02 0.200D-01 0.525D-01 0.172D+00 0.356D+00
 Coeff-Com:  0.401D+00
 Coeff-En:   0.000D+00 0.000D+00 0.000D+00 0.000D+00 0.000D+00 0.118D+00
 Coeff-En:   0.882D+00
 Coeff:     -0.526D-03-0.106D-02 0.199D-01 0.524D-01 0.172D+00 0.356D+00
 Coeff:      0.401D+00
 Gap=     0.130 Goal=   None    Shift=    0.000
 RMSDP=6.23D-06 MaxDP=4.89D-04 DE=-3.67D-04 OVMax= 1.44D-03

 Initial convergence to 1.0D-05 achieved.  Increase integral accuracy.
 Cycle   8  Pass 1  IDiag  1:
 E= -4406.60283686689     Delta-E=        0.000188605085 Rises=F Damp=F
 DIIS: error= 3.09D-04 at cycle   1 NSaved=   1.
 NSaved= 1 IEnMin= 1 EnMin= -4406.60283686689     IErMin= 1 ErrMin= 3.09D-04
 ErrMax= 3.09D-04 EMaxC= 1.00D-01 BMatC= 1.09D-04 BMatP= 1.09D-04
 IDIUse=3 WtCom= 9.97D-01 WtEn= 3.09D-03
 Coeff-Com:  0.100D+01
 Coeff-En:   0.100D+01
 Coeff:      0.100D+01
 Gap=     0.129 Goal=   None    Shift=    0.000
 RMSDP=6.23D-06 MaxDP=4.89D-04 DE= 1.89D-04 OVMax= 9.25D-04

 Cycle   9  Pass 1  IDiag  1:
 RMSU=  1.01D-04    CP:  9.99D-01
 E= -4406.60292998019     Delta-E=       -0.000093113304 Rises=F Damp=F
 DIIS: error= 3.89D-05 at cycle   2 NSaved=   2.
 NSaved= 2 IEnMin= 2 EnMin= -4406.60292998019     IErMin= 2 ErrMin= 3.89D-05
 ErrMax= 3.89D-05 EMaxC= 1.00D-01 BMatC= 5.21D-06 BMatP= 1.09D-04
 IDIUse=1 WtCom= 1.00D+00 WtEn= 0.00D+00
 Coeff-Com:  0.585D-01 0.941D+00
 Coeff:      0.585D-01 0.941D+00
 Gap=     0.130 Goal=   None    Shift=    0.000
 RMSDP=4.74D-06 MaxDP=7.29D-04 DE=-9.31D-05 OVMax= 1.11D-03

 Cycle  10  Pass 1  IDiag  1:
 RMSU=  3.20D-06    CP:  9.99D-01  1.01D+00
 E= -4406.60291303732     Delta-E=        0.000016942875 Rises=F Damp=F
 DIIS: error= 9.65D-05 at cycle   3 NSaved=   3.
 NSaved= 3 IEnMin= 2 EnMin= -4406.60292998019     IErMin= 2 ErrMin= 3.89D-05
 ErrMax= 9.65D-05 EMaxC= 1.00D-01 BMatC= 2.15D-05 BMatP= 5.21D-06
 IDIUse=1 WtCom= 1.00D+00 WtEn= 0.00D+00
 Coeff-Com: -0.284D-02 0.674D+00 0.329D+00
 Coeff:     -0.284D-02 0.674D+00 0.329D+00
 Gap=     0.130 Goal=   None    Shift=    0.000
 RMSDP=3.27D-06 MaxDP=4.09D-04 DE= 1.69D-05 OVMax= 8.57D-04

 Cycle  11  Pass 1  IDiag  1:
 RMSU=  5.36D-07    CP:  9.99D-01  1.01D+00  2.99D-01
 E= -4406.60293454142     Delta-E=       -0.000021504104 Rises=F Damp=F
 DIIS: error= 1.57D-05 at cycle   4 NSaved=   4.
 NSaved= 4 IEnMin= 4 EnMin= -4406.60293454142     IErMin= 4 ErrMin= 1.57D-05
 ErrMax= 1.57D-05 EMaxC= 1.00D-01 BMatC= 5.12D-07 BMatP= 5.21D-06
 IDIUse=1 WtCom= 1.00D+00 WtEn= 0.00D+00
 Coeff-Com: -0.362D-02 0.431D+00 0.224D+00 0.349D+00
 Coeff:     -0.362D-02 0.431D+00 0.224D+00 0.349D+00
 Gap=     0.130 Goal=   None    Shift=    0.000
 RMSDP=4.64D-07 MaxDP=5.21D-05 DE=-2.15D-05 OVMax= 1.50D-04

 Cycle  12  Pass 1  IDiag  1:
 RMSU=  1.62D-07    CP:  9.99D-01  1.01D+00  3.39D-01  5.26D-01
 E= -4406.60293507882     Delta-E=       -0.000000537402 Rises=F Damp=F
 DIIS: error= 1.37D-06 at cycle   5 NSaved=   5.
 NSaved= 5 IEnMin= 5 EnMin= -4406.60293507882     IErMin= 5 ErrMin= 1.37D-06
 ErrMax= 1.37D-06 EMaxC= 1.00D-01 BMatC= 8.65D-09 BMatP= 5.12D-07
 IDIUse=1 WtCom= 1.00D+00 WtEn= 0.00D+00
 Coeff-Com: -0.184D-02 0.203D+00 0.107D+00 0.191D+00 0.501D+00
 Coeff:     -0.184D-02 0.203D+00 0.107D+00 0.191D+00 0.501D+00
 Gap=     0.130 Goal=   None    Shift=    0.000
 RMSDP=7.93D-08 MaxDP=1.38D-05 DE=-5.37D-07 OVMax= 1.76D-05

 Cycle  13  Pass 1  IDiag  1:
 RMSU=  4.68D-08    CP:  9.99D-01  1.01D+00  3.37D-01  5.53D-01  8.40D-01
 E= -4406.60293508740     Delta-E=       -0.000000008578 Rises=F Damp=F
 DIIS: error= 4.07D-07 at cycle   6 NSaved=   6.
 NSaved= 6 IEnMin= 6 EnMin= -4406.60293508740     IErMin= 6 ErrMin= 4.07D-07
 ErrMax= 4.07D-07 EMaxC= 1.00D-01 BMatC= 1.00D-09 BMatP= 8.65D-09
 IDIUse=1 WtCom= 1.00D+00 WtEn= 0.00D+00
 Coeff-Com: -0.534D-03 0.551D-01 0.294D-01 0.594D-01 0.281D+00 0.576D+00
 Coeff:     -0.534D-03 0.551D-01 0.294D-01 0.594D-01 0.281D+00 0.576D+00
 Gap=     0.130 Goal=   None    Shift=    0.000
 RMSDP=2.78D-08 MaxDP=2.60D-06 DE=-8.58D-09 OVMax= 8.05D-06

 Cycle  14  Pass 1  IDiag  1:
 RMSU=  1.52D-08    CP:  9.99D-01  1.01D+00  3.37D-01  5.54D-01  8.89D-01
                    CP:  8.05D-01
 E= -4406.60293508816     Delta-E=       -0.000000000760 Rises=F Damp=F
 DIIS: error= 2.36D-07 at cycle   7 NSaved=   7.
 NSaved= 7 IEnMin= 7 EnMin= -4406.60293508816     IErMin= 7 ErrMin= 2.36D-07
 ErrMax= 2.36D-07 EMaxC= 1.00D-01 BMatC= 1.71D-10 BMatP= 1.00D-09
 IDIUse=1 WtCom= 1.00D+00 WtEn= 0.00D+00
 Coeff-Com: -0.445D-04 0.240D-02 0.156D-02 0.673D-02 0.916D-01 0.347D+00
 Coeff-Com:  0.551D+00
 Coeff:     -0.445D-04 0.240D-02 0.156D-02 0.673D-02 0.916D-01 0.347D+00
 Coeff:      0.551D+00
 Gap=     0.130 Goal=   None    Shift=    0.000
 RMSDP=9.96D-09 MaxDP=1.87D-06 DE=-7.60D-10 OVMax= 2.49D-06

 Cycle  15  Pass 1  IDiag  1:
 RMSU=  4.61D-09    CP:  9.99D-01  1.01D+00  3.37D-01  5.55D-01  8.89D-01
                    CP:  8.33D-01  6.76D-01
 E= -4406.60293508876     Delta-E=       -0.000000000597 Rises=F Damp=F
 DIIS: error= 5.52D-08 at cycle   8 NSaved=   8.
 NSaved= 8 IEnMin= 8 EnMin= -4406.60293508876     IErMin= 8 ErrMin= 5.52D-08
 ErrMax= 5.52D-08 EMaxC= 1.00D-01 BMatC= 1.50D-11 BMatP= 1.71D-10
 IDIUse=1 WtCom= 1.00D+00 WtEn= 0.00D+00
 Coeff-Com:  0.327D-04-0.458D-02-0.229D-02-0.253D-02 0.207D-01 0.135D+00
 Coeff-Com:  0.301D+00 0.553D+00
 Coeff:      0.327D-04-0.458D-02-0.229D-02-0.253D-02 0.207D-01 0.135D+00
 Coeff:      0.301D+00 0.553D+00
 Gap=     0.130 Goal=   None    Shift=    0.000
 RMSDP=3.52D-09 MaxDP=3.73D-07 DE=-5.97D-10 OVMax= 1.10D-06

 SCF Done:  E(RB3LYP) =  -4406.60293509     A.U. after   15 cycles
             Convg  =    0.3515D-08             -V/T =  2.0065
 KE= 4.378290193644D+03 PE=-4.801792272937D+04 EE= 2.035365652093D+04
 Leave Link  502 at Tue Feb  3 02:17:41 2015, MaxMem= 2147483648 cpu:   36553.8
 (Enter /opt/g09/l601.exe)
 Copying SCF densities to generalized density rwf, IOpCl= 0 IROHF=0.

 **********************************************************************

            Population analysis using the SCF density.

 **********************************************************************

 Orbital symmetries:
       Occupied  (A) (A) (A) (A) (A) (A) (A) (A) (A) (A) (A) (A)
                 (A) (A) (A) (A) (A) (A) (A) (A) (A) (A) (A) (A)
                 (A) (A) (A) (A) (A) (A) (A) (A) (A) (A) (A) (A)
                 (A) (A) (A) (A) (A) (A) (A) (A) (A) (A) (A) (A)
                 (A) (A) (A) (A) (A) (A) (A) (A) (A) (A) (A) (A)
                 (A) (A) (A) (A) (A) (A) (A) (A) (A) (A) (A) (A)
                 (A) (A) (A) (A) (A) (A) (A) (A) (A) (A) (A) (A)
                 (A) (A) (A) (A) (A) (A) (A) (A) (A) (A) (A) (A)
                 (A) (A) (A) (A) (A) (A) (A) (A) (A) (A) (A) (A)
                 (A) (A) (A) (A) (A) (A) (A) (A) (A) (A) (A) (A)
                 (A) (A) (A) (A) (A) (A) (A) (A) (A) (A) (A) (A)
                 (A) (A) (A) (A) (A) (A) (A) (A) (A) (A) (A) (A)
                 (A) (A) (A) (A) (A) (A) (A) (A) (A) (A) (A) (A)
                 (A) (A) (A) (A) (A) (A) (A) (A) (A) (A) (A) (A)
                 (A) (A) (A) (A) (A) (A) (A) (A) (A) (A) (A) (A)
                 (A) (A) (A) (A) (A) (A) (A) (A) (A) (A) (A) (A)
                 (A) (A) (A) (A) (A) (A) (A) (A) (A) (A) (A) (A)
                 (A) (A) (A) (A) (A) (A) (A) (A) (A) (A) (A) (A)
                 (A) (A) (A) (A) (A) (A) (A) (A) (A) (A) (A) (A)
                 (A) (A) (A) (A) (A) (A) (A) (A) (A) (A) (A) (A)
                 (A) (A) (A) (A) (A) (A) (A) (A) (A) (A) (A) (A)
                 (A) (A) (A) (A) (A) (A) (A) (A) (A) (A) (A) (A)
                 (A) (A) (A) (A) (A) (A) (A) (A) (A) (A) (A) (A)
                 (A) (A) (A) (A) (A) (A) (A) (A) (A) (A) (A) (A)
                 (A) (A) (A) (A) (A) (A) (A) (A) (A) (A) (A) (A)
                 (A) (A) (A) (A) (A) (A) (A) (A) (A) (A) (A) (A)
                 (A) (A) (A) (A) (A) (A) (A) (A) (A) (A) (A) (A)
                 (A) (A) (A) (A) (A) (A) (A) (A) (A) (A) (A) (A)
                 (A) (A) (A) (A) (A) (A) (A) (A) (A) (A) (A) (A)
                 (A) (A) (A) (A) (A) (A) (A)
       Virtual   (A) (A) (A) (A) (A) (A) (A) (A) (A) (A) (A) (A)
                 (A) (A) (A) (A) (A) (A) (A) (A) (A) (A) (A) (A)
                 (A) (A) (A) (A) (A) (A) (A) (A) (A) (A) (A) (A)
                 (A) (A) (A) (A) (A) (A) (A) (A) (A) (A) (A) (A)
                 (A) (A) (A) (A) (A) (A) (A) (A) (A) (A) (A) (A)
                 (A) (A) (A) (A) (A) (A) (A) (A) (A) (A) (A) (A)
                 (A) (A) (A) (A) (A) (A) (A) (A) (A) (A) (A) (A)
                 (A) (A) (A) (A) (A) (A) (A) (A) (A) (A) (A) (A)
                 (A) (A) (A) (A) (A) (A) (A) (A) (A) (A) (A) (A)
                 (A) (A) (A) (A) (A) (A) (A) (A) (A) (A) (A) (A)
                 (A) (A) (A) (A) (A) (A) (A) (A) (A) (A) (A) (A)
                 (A) (A) (A) (A) (A) (A) (A) (A) (A) (A) (A) (A)
                 (A) (A) (A) (A) (A) (A) (A) (A) (A) (A) (A) (A)
                 (A) (A) (A) (A) (A) (A) (A) (A) (A) (A) (A) (A)
                 (A) (A) (A) (A) (A) (A) (A) (A) (A) (A) (A) (A)
                 (A) (A) (A) (A) (A) (A) (A) (A) (A) (A) (A) (A)
                 (A) (A) (A) (A) (A) (A) (A) (A) (A) (A) (A) (A)
                 (A) (A) (A) (A) (A) (A) (A) (A) (A) (A) (A) (A)
                 (A) (A) (A) (A) (A) (A) (A) (A) (A) (A) (A) (A)
                 (A) (A) (A) (A) (A) (A) (A) (A) (A) (A) (A) (A)
                 (A) (A) (A) (A) (A) (A) (A) (A) (A) (A) (A) (A)
                 (A) (A) (A) (A) (A) (A) (A) (A) (A) (A) (A) (A)
                 (A) (A) (A) (A) (A) (A) (A) (A) (A) (A) (A) (A)
                 (A) (A) (A) (A) (A) (A) (A) (A) (A) (A) (A) (A)
                 (A) (A) (A) (A) (A) (A) (A) (A) (A) (A) (A) (A)
                 (A) (A) (A) (A) (A) (A) (A) (A) (A) (A) (A) (A)
                 (A) (A) (A) (A) (A) (A) (A) (A) (A) (A) (A) (A)
                 (A) (A) (A) (A) (A) (A) (A) (A) (A) (A) (A) (A)
                 (A) (A) (A) (A) (A) (A) (A) (A) (A) (A) (A) (A)
                 (A) (A) (A) (A) (A) (A) (A) (A) (A) (A) (A) (A)
                 (A) (A) (A) (A) (A) (A) (A) (A) (A) (A) (A) (A)
                 (A) (A) (A) (A) (A) (A) (A) (A) (A) (A) (A) (A)
                 (A) (A) (A) (A) (A) (A) (A) (A) (A) (A) (A) (A)
                 (A) (A) (A) (A) (A) (A) (A) (A) (A) (A) (A) (A)
                 (A) (A) (A) (A) (A) (A) (A) (A) (A) (A) (A) (A)
                 (A) (A) (A) (A) (A) (A) (A) (A) (A) (A) (A) (A)
                 (A) (A) (A) (A) (A) (A) (A) (A) (A) (A) (A) (A)
                 (A) (A) (A) (A) (A) (A) (A) (A) (A) (A) (A) (A)
                 (A) (A) (A) (A) (A) (A) (A) (A) (A) (A) (A) (A)
                 (A) (A) (A) (A) (A) (A) (A) (A) (A) (A) (A) (A)
                 (A) (A) (A) (A) (A) (A) (A) (A) (A) (A) (A) (A)
                 (A) (A) (A) (A) (A) (A) (A) (A) (A) (A) (A) (A)
                 (A) (A) (A) (A) (A) (A) (A) (A) (A) (A) (A) (A)
                 (A) (A) (A) (A) (A) (A) (A) (A) (A) (A) (A) (A)
                 (A) (A) (A) (A) (A) (A) (A) (A) (A) (A) (A) (A)
                 (A) (A) (A) (A) (A) (A) (A) (A) (A) (A) (A) (A)
                 (A) (A) (A) (A) (A) (A) (A) (A) (A) (A) (A) (A)
                 (A) (A) (A) (A) (A) (A) (A) (A) (A) (A) (A) (A)
                 (A) (A) (A) (A) (A) (A) (A) (A) (A) (A) (A) (A)
                 (A) (A) (A) (A) (A) (A) (A) (A) (A) (A) (A) (A)
                 (A) (A) (A) (A) (A) (A) (A) (A) (A) (A) (A) (A)
                 (A) (A) (A) (A) (A) (A) (A) (A) (A) (A) (A) (A)
                 (A) (A) (A) (A) (A) (A) (A) (A) (A) (A) (A) (A)
                 (A) (A) (A) (A) (A) (A) (A) (A) (A) (A) (A) (A)
                 (A) (A) (A) (A) (A) (A) (A) (A) (A) (A) (A) (A)
                 (A) (A) (A) (A) (A) (A) (A) (A) (A) (A) (A) (A)
                 (A) (A) (A) (A) (A) (A) (A) (A) (A) (A) (A) (A)
                 (A) (A) (A) (A) (A) (A) (A) (A) (A) (A) (A) (A)
                 (A) (A) (A) (A) (A) (A) (A) (A) (A) (A) (A) (A)
                 (A) (A) (A) (A) (A) (A) (A) (A) (A) (A) (A) (A)
                 (A) (A) (A) (A) (A) (A) (A) (A) (A) (A) (A) (A)
                 (A) (A) (A) (A) (A) (A) (A) (A) (A) (A) (A) (A)
                 (A) (A) (A) (A) (A) (A) (A) (A) (A) (A) (A) (A)
                 (A) (A) (A) (A) (A) (A) (A) (A) (A) (A) (A) (A)
                 (A) (A) (A) (A) (A) (A) (A) (A) (A) (A) (A) (A)
                 (A) (A) (A) (A) (A) (A) (A) (A) (A) (A) (A) (A)
                 (A) (A) (A) (A) (A) (A) (A) (A) (A) (A) (A) (A)
                 (A) (A) (A) (A) (A) (A) (A) (A) (A) (A) (A) (A)
                 (A) (A) (A) (A) (A) (A) (A) (A) (A) (A) (A) (A)
                 (A) (A) (A) (A) (A) (A) (A) (A) (A) (A) (A) (A)
                 (A) (A) (A) (A) (A) (A) (A) (A) (A) (A) (A) (A)
                 (A) (A) (A) (A) (A) (A) (A) (A) (A) (A) (A) (A)
                 (A) (A) (A) (A) (A) (A) (A) (A) (A) (A) (A) (A)
                 (A) (A) (A) (A) (A) (A) (A) (A) (A) (A) (A) (A)
                 (A) (A) (A) (A) (A) (A) (A) (A) (A) (A) (A) (A)
                 (A) (A) (A) (A) (A) (A) (A) (A) (A) (A) (A) (A)
                 (A) (A) (A) (A) (A) (A) (A) (A) (A) (A) (A) (A)
                 (A) (A) (A) (A) (A) (A) (A) (A) (A) (A) (A) (A)
                 (A) (A) (A) (A) (A) (A) (A) (A) (A) (A) (A) (A)
                 (A) (A) (A) (A) (A) (A) (A) (A) (A) (A) (A) (A)
                 (A) (A) (A) (A) (A) (A) (A) (A) (A) (A) (A) (A)
                 (A) (A) (A) (A) (A) (A) (A) (A) (A) (A) (A) (A)
                 (A) (A) (A) (A) (A) (A) (A) (A) (A) (A) (A) (A)
                 (A) (A) (A) (A) (A) (A) (A) (A) (A) (A) (A) (A)
                 (A) (A) (A) (A) (A) (A) (A) (A) (A) (A) (A) (A)
                 (A) (A) (A) (A) (A) (A) (A) (A) (A) (A) (A) (A)
                 (A) (A) (A) (A) (A) (A) (A) (A) (A) (A) (A) (A)
                 (A) (A) (A) (A) (A) (A) (A) (A) (A) (A) (A) (A)
                 (A) (A) (A) (A) (A) (A) (A) (A) (A) (A) (A) (A)
                 (A) (A) (A) (A) (A) (A) (A) (A) (A) (A) (A) (A)
                 (A) (A) (A) (A) (A) (A) (A) (A) (A) (A) (A) (A)
                 (A) (A) (A) (A) (A) (A) (A) (A) (A) (A) (A) (A)
                 (A) (A) (A) (A) (A) (A) (A) (A) (A) (A) (A) (A)
                 (A) (A) (A) (A) (A) (A) (A) (A) (A) (A) (A) (A)
                 (A) (A) (A) (A) (A) (A) (A) (A) (A) (A) (A) (A)
                 (A) (A) (A) (A) (A) (A) (A) (A) (A) (A) (A) (A)
                 (A) (A) (A) (A) (A) (A) (A) (A) (A) (A) (A) (A)
                 (A) (A) (A) (A) (A) (A) (A) (A) (A) (A) (A) (A)
                 (A) (A) (A) (A) (A) (A) (A) (A) (A) (A) (A) (A)
                 (A) (A) (A) (A) (A) (A) (A) (A) (A) (A) (A) (A)
                 (A) (A) (A) (A) (A) (A) (A) (A) (A) (A) (A) (A)
                 (A) (A) (A) (A) (A) (A) (A) (A) (A) (A) (A) (A)
                 (A) (A) (A) (A) (A) (A) (A) (A) (A) (A) (A) (A)
                 (A) (A) (A) (A) (A) (A) (A) (A) (A) (A) (A) (A)
                 (A) (A) (A) (A) (A) (A) (A) (A) (A) (A) (A) (A)
                 (A) (A) (A) (A) (A) (A) (A) (A) (A) (A) (A) (A)
                 (A) (A) (A) (A) (A) (A) (A) (A) (A) (A) (A) (A)
                 (A) (A) (A) (A) (A) (A) (A) (A) (A) (A) (A) (A)
                 (A) (A) (A) (A) (A) (A) (A) (A) (A) (A) (A) (A)
                 (A) (A) (A) (A) (A) (A) (A) (A) (A) (A) (A) (A)
                 (A) (A) (A) (A) (A) (A) (A) (A) (A) (A) (A) (A)
                 (A) (A) (A) (A) (A) (A) (A) (A) (A) (A) (A) (A)
                 (A) (A) (A) (A) (A) (A) (A) (A) (A) (A) (A) (A)
                 (A) (A) (A) (A) (A) (A) (A) (A) (A) (A) (A) (A)
                 (A) (A) (A) (A) (A) (A) (A) (A) (A) (A) (A) (A)
                 (A) (A) (A) (A) (A) (A) (A) (A) (A) (A) (A) (A)
                 (A) (A) (A) (A) (A) (A) (A) (A) (A) (A) (A) (A)
                 (A) (A) (A) (A) (A) (A) (A) (A) (A) (A) (A) (A)
                 (A) (A) (A) (A) (A) (A) (A) (A) (A) (A) (A) (A)
                 (A) (A) (A) (A) (A) (A) (A) (A) (A) (A) (A)
 The electronic state is 1-A.
 Alpha  occ. eigenvalues --  -19.17154 -19.16635 -19.16633 -19.16621 -19.16568
 Alpha  occ. eigenvalues --  -19.16479 -19.16318 -19.16263 -19.16259 -19.16050
 Alpha  occ. eigenvalues --  -19.16040 -19.14786 -14.34917 -14.34801 -14.34660
 Alpha  occ. eigenvalues --  -14.34636 -10.24358 -10.24061 -10.24024 -10.24011
 Alpha  occ. eigenvalues --  -10.23997 -10.23994 -10.23957 -10.23950 -10.23933
 Alpha  occ. eigenvalues --  -10.23926 -10.23891 -10.23827 -10.23826 -10.23742
 Alpha  occ. eigenvalues --  -10.23718 -10.23638 -10.23548 -10.23544 -10.23432
 Alpha  occ. eigenvalues --  -10.23393 -10.23382 -10.23378 -10.23362 -10.22504
 Alpha  occ. eigenvalues --  -10.21957 -10.21921 -10.21918 -10.21809 -10.21799
 Alpha  occ. eigenvalues --  -10.21686 -10.21686 -10.21654 -10.21624 -10.21599
 Alpha  occ. eigenvalues --  -10.21517 -10.21488 -10.20377 -10.18726 -10.18515
 Alpha  occ. eigenvalues --  -10.18485 -10.18469 -10.18454 -10.18441 -10.18441
 Alpha  occ. eigenvalues --  -10.18407 -10.18398 -10.18394 -10.18390 -10.18369
 Alpha  occ. eigenvalues --  -10.18368 -10.18364 -10.18357 -10.18339 -10.18325
 Alpha  occ. eigenvalues --  -10.18296 -10.18201 -10.18184 -10.18136 -10.18133
 Alpha  occ. eigenvalues --  -10.18117 -10.18111 -10.18071 -10.18057 -10.18056
 Alpha  occ. eigenvalues --  -10.18024 -10.18006 -10.17976 -10.17965 -10.17883
 Alpha  occ. eigenvalues --  -10.17823 -10.17802 -10.17786 -10.17781 -10.17739
 Alpha  occ. eigenvalues --  -10.17732 -10.17672 -10.17663 -10.17630 -10.17625
 Alpha  occ. eigenvalues --  -10.17616 -10.17540 -10.17539 -10.17498 -10.17369
 Alpha  occ. eigenvalues --  -10.17360  -1.07125  -1.07044  -1.06880  -1.06879
 Alpha  occ. eigenvalues --   -1.06276  -1.06265  -1.06250  -1.06210  -1.05194
 Alpha  occ. eigenvalues --   -1.04947  -1.04941  -1.04061  -0.95663  -0.95567
 Alpha  occ. eigenvalues --   -0.95450  -0.95427  -0.89216  -0.86333  -0.85070
 Alpha  occ. eigenvalues --   -0.85020  -0.84918  -0.84884  -0.84523  -0.84341
 Alpha  occ. eigenvalues --   -0.83820  -0.83517  -0.82440  -0.82314  -0.79738
 Alpha  occ. eigenvalues --   -0.77685  -0.76496  -0.76269  -0.76213  -0.76121
 Alpha  occ. eigenvalues --   -0.76002  -0.75266  -0.75052  -0.74924  -0.74874
 Alpha  occ. eigenvalues --   -0.74797  -0.74665  -0.74464  -0.74299  -0.74142
 Alpha  occ. eigenvalues --   -0.74049  -0.73940  -0.73569  -0.73447  -0.73201
 Alpha  occ. eigenvalues --   -0.72942  -0.71063  -0.70660  -0.70298  -0.70154
 Alpha  occ. eigenvalues --   -0.70064  -0.69906  -0.69673  -0.69589  -0.69340
 Alpha  occ. eigenvalues --   -0.68462  -0.67643  -0.67513  -0.67300  -0.66638
 Alpha  occ. eigenvalues --   -0.66430  -0.63464  -0.62937  -0.62016  -0.61705
 Alpha  occ. eigenvalues --   -0.61422  -0.61189  -0.60811  -0.60645  -0.60418
 Alpha  occ. eigenvalues --   -0.60116  -0.59870  -0.59763  -0.59490  -0.59261
 Alpha  occ. eigenvalues --   -0.59147  -0.58757  -0.58644  -0.57980  -0.57649
 Alpha  occ. eigenvalues --   -0.57548  -0.56167  -0.55942  -0.55828  -0.55173
[...]
 Alpha virt. eigenvalues --    2.06862   2.06879   2.06990   2.07043   2.07085
 Alpha virt. eigenvalues --    2.07186   2.07280   2.07358   2.07463   2.07559
 Alpha virt. eigenvalues --    2.08295   2.08513   2.08614   2.08878   2.08989
 Alpha virt. eigenvalues --    2.09416   2.09460   2.09763   2.09994   2.10679
 Alpha virt. eigenvalues --    2.10741   2.11250   2.11391   2.11982   2.12683
 Alpha virt. eigenvalues --    2.13176   2.13264   2.13311   2.13846   2.13960
 Alpha virt. eigenvalues --    2.14067   2.14366   2.14778   2.14990   2.15052
 Alpha virt. eigenvalues --    2.15171   2.15386   2.15774   2.15931   2.16427
 Alpha virt. eigenvalues --    2.16489   2.16947   2.17086   2.17336   2.17443
 Alpha virt. eigenvalues --    2.17587   2.17710   2.17794   2.18225   2.18936
 Alpha virt. eigenvalues --    2.19064   2.19252   2.19414   2.19780   2.19945
 Alpha virt. eigenvalues --    2.20534   2.20624   2.20840   2.20978   2.21147
 Alpha virt. eigenvalues --    2.21178   2.21398   2.21626   2.21827   2.21977
 Alpha virt. eigenvalues --    2.22541   2.22602   2.22829   2.22924   2.23284
 Alpha virt. eigenvalues --    2.23458   2.23657   2.23825   2.23960   2.24045
 Alpha virt. eigenvalues --    2.24431   2.24650   2.24778   2.25001   2.25140
 Alpha virt. eigenvalues --    2.25311   2.25696   2.25863   2.26220   2.26495
 Alpha virt. eigenvalues --    2.26798   2.27101   2.27176   2.27596   2.28013
 Alpha virt. eigenvalues --    2.28280   2.28393   2.29396   2.30273   2.30484
 Alpha virt. eigenvalues --    2.31993   2.32493   2.32683   2.33198   2.33497
 Alpha virt. eigenvalues --    2.33580   2.34214   2.34431   2.34748   2.35589
 Alpha virt. eigenvalues --    2.36184   2.36460   2.37278   2.38907   2.38965
 Alpha virt. eigenvalues --    2.39043   2.39230   2.39312   2.39372   2.39407
 Alpha virt. eigenvalues --    2.39437   2.39461   2.39500   2.39526   2.40128
 Alpha virt. eigenvalues --    2.40439   2.40464   2.40838   2.41071   2.42043
 Alpha virt. eigenvalues --    2.42075   2.42236   2.42413   2.43330   2.43400
 Alpha virt. eigenvalues --    2.43978   2.44113   2.44146   2.44295   2.44366
 Alpha virt. eigenvalues --    2.44451   2.44656   2.44826   2.45005   2.45269
 Alpha virt. eigenvalues --    2.45283   2.45725   2.46047   2.46150   2.46241
 Alpha virt. eigenvalues --    2.46415   2.47194   2.47377   2.47948   2.48467
 Alpha virt. eigenvalues --    2.48754   2.48897   2.49027   2.49110   2.49208
 Alpha virt. eigenvalues --    2.49430   2.49561   2.49797   2.50062   2.50298
 Alpha virt. eigenvalues --    2.50510   2.51054   2.51301   2.51633   2.52011
 Alpha virt. eigenvalues --    2.52497   2.52632   2.53035   2.53240   2.53714
 Alpha virt. eigenvalues --    2.54180   2.54480   2.54845   2.55613   2.56869
 Alpha virt. eigenvalues --    2.57316   2.57993   2.58783   2.59165   2.59476
 Alpha virt. eigenvalues --    2.59704   2.60391   2.61409   2.62212   2.63234
 Alpha virt. eigenvalues --    2.63820   2.64131   2.64331   2.64955   2.65153
 Alpha virt. eigenvalues --    2.65563   2.65820   2.66270   2.66422   2.66523
 Alpha virt. eigenvalues --    2.66801   2.66948   2.67881   2.68069   2.68436
 Alpha virt. eigenvalues --    2.68613   2.68798   2.69114   2.69346   2.70797
 Alpha virt. eigenvalues --    2.70920   2.72695   2.73215   2.73951   2.74529
 Alpha virt. eigenvalues --    2.75720   2.76018   2.76280   2.77354   2.78400
 Alpha virt. eigenvalues --    2.78697   2.79402   2.80534   2.80772   2.80941
 Alpha virt. eigenvalues --    2.82366   2.83416   2.83603   2.83684   2.83913
 Alpha virt. eigenvalues --    2.83949   2.84208   2.86406   2.86648   2.86732
 Alpha virt. eigenvalues --    2.86900   2.88141   2.88184   2.88205   2.88283
 Alpha virt. eigenvalues --    2.89136   2.91823   2.91849   2.92056   2.92162
 Alpha virt. eigenvalues --    2.92238   2.92492   2.92524   2.93692   2.95306
 Alpha virt. eigenvalues --    2.95699   2.96560   2.96829   2.97525   2.98227
 Alpha virt. eigenvalues --    2.98474   2.99675   2.99919   2.99988   3.00087
 Alpha virt. eigenvalues --    3.00284   3.00304   3.02505   3.02826   3.02881
 Alpha virt. eigenvalues --    3.03007   3.03040   3.03127   3.03240   3.03297
 Alpha virt. eigenvalues --    3.03495   3.04255   3.04404   3.05090   3.05343
 Alpha virt. eigenvalues --    3.06192   3.06377   3.06671   3.07315   3.07343
 Alpha virt. eigenvalues --    3.07528   3.08182   3.08610   3.09741   3.10025
 Alpha virt. eigenvalues --    3.10239   3.14962   3.17072   3.22228   3.25406
 Alpha virt. eigenvalues --    3.25430   3.25673   3.26062   3.26283   3.26298
 Alpha virt. eigenvalues --    3.26730   3.27079   3.27098   3.27305   3.27502
 Alpha virt. eigenvalues --    3.36982   3.38409   3.38658   3.38724   3.39970
 Alpha virt. eigenvalues --    3.40453   3.40488   3.40625   3.40846   3.41785
 Alpha virt. eigenvalues --    3.43905   3.48073   3.48325   3.48343   3.55621
 Alpha virt. eigenvalues --    3.55709   3.65411   3.65468   3.65476   3.65510
 Alpha virt. eigenvalues --    3.68653   3.69585   3.69812   3.69821
          Condensed to atoms (all electrons):
 Mulliken atomic charges:
              1
     1  C   -0.298851
     2  C    0.098461
     3  C    0.042459
     4  C    0.042646
     5  C    0.099145
     6  C    0.099224
     7  C    0.041873
     8  C    0.041074
     9  C    0.099409
    10  C    0.014297
    11  C    0.079437
    12  C    0.062046
    13  C   -0.010828
    14  C   -0.011925
    15  C    0.059193
    16  C    0.079495
    17  C    0.021285
    18  C    0.020262
    19  C    0.076906
    20  C    0.061973
    21  C   -0.011805
    22  C   -0.011453
    23  C    0.061896
    24  C    0.084801
    25  C    0.012369
    26  N   -0.279382
    27  N   -0.278387
    28  N   -0.278514
    29  N   -0.278490
    30  C    0.035769
    31  C    0.044712
    32  C    0.040132
    33  C    0.038427
    34  C    0.042467
    35  C    0.060419
    36  C    0.038688
    37  C    0.040682
    38  C    0.037088
    39  C   -0.004178
    40  C    0.117221
    41  C    0.048738
    42  C    0.052831
    43  C    0.043112
    44  C   -0.000650
    45  C    0.120382
    46  C    0.038347
    47  C    0.046513
    48  C    0.071909
    49  C    0.057796
    50  C    0.126937
    51  C    0.012044
    52  C    0.035193
    53  C    0.012224
    54  C    0.130752
    55  C    0.108022
    56  C    0.004284
    57  C    0.027125
    58  C    0.026067
    59  C    0.004636
    60  C    0.107597
    61  C    0.130812
    62  C    0.008518
    63  C    0.041657
    64  C   -0.003758
    65  C    0.117564
    66  C    0.047793
    67  C    0.047998
    68  C    0.046617
    69  C    0.038333
    70  C    0.119279
    71  C   -0.002606
    72  C    0.040767
    73  C    0.032280
    74  C    0.011720
    75  C    0.107607
    76  C    0.130465
    77  C    0.010564
    78  H   -0.040632
    79  H   -0.042891
    80  H   -0.035397
    81  H   -0.057182
    82  H   -0.057260
    83  H   -0.034729
    84  H   -0.057179
    85  H   -0.034344
    86  H   -0.056915
    87  H   -0.036203
    88  H   -0.042206
    89  H   -0.041359
    90  O   -0.280234
    91  C    0.131117
    92  O   -0.282906
    93  C    0.131172
    94  O   -0.282878
    95  O   -0.280317
    96  C    0.130941
    97  C    0.131379
    98  H   -0.032191
    99  H   -0.028149
   100  H   -0.031495
   101  H   -0.035965
   102  H   -0.035941
   103  H   -0.030667
   104  H   -0.026031
   105  H   -0.025598
   106  H   -0.031129
   107  H   -0.035791
   108  H   -0.025792
   109  H   -0.025620
   110  H   -0.035578
   111  H   -0.029266
   112  H   -0.032181
   113  H   -0.029260
   114  H    0.024947
   115  H    0.023641
   116  H    0.032058
   117  H    0.025205
   118  H    0.025082
   119  H    0.032326
   120  H    0.031990
   121  H    0.023500
   122  H    0.024935
   123  H    0.023192
   124  H    0.026335
   125  H    0.032830
   126  O   -0.272278
   127  H   -0.036367
   128  H   -0.034269
   129  H   -0.031222
   130  H   -0.035714
   131  H   -0.037047
   132  O   -0.271958
   133  H   -0.038203
   134  O   -0.272175
   135  H   -0.037337
   136  H   -0.033090
   137  H   -0.032214
   138  H   -0.031431
   139  H   -0.033941
   140  O   -0.297260
   141  H   -0.035317
   142  O   -0.271371
   143  C    0.132815
   144  O   -0.286672
   145  C    0.132565
   146  O   -0.271417
   147  C    0.132575
   148  O   -0.270728
   149  C    0.133046
   150  H    0.030148
   151  H    0.025926
   152  H    0.024092
   153  H    0.031971
   154  H    0.023598
   155  H    0.023024
   156  H    0.030246
   157  H    0.024688
   158  H    0.026879
   159  H    0.025741
   160  H    0.026790
   161  H    0.033311
   162  C    0.133076
   163  C    0.133435
   164  C    0.135307
   165  C    0.133269
   166  H    0.030863
   167  H    0.025693
   168  H    0.026819
   169  H    0.031799
   170  H    0.027494
   171  H    0.024935
   172  H    0.030771
   173  H    0.028242
   174  H    0.024566
   175  H    0.007944
   176  H    0.024955
   177  H    0.026553
 Sum of Mulliken atomic charges =   0.00000
 Mulliken charges with hydrogens summed into heavy atoms:
              1
     1  C   -0.298851
     2  C    0.098461
     3  C    0.042459
     4  C    0.042646
     5  C    0.099145
     6  C    0.099224
     7  C    0.041873
     8  C    0.041074
     9  C    0.099409
    10  C   -0.027062
    11  C    0.079437
    12  C    0.025843
    13  C   -0.067743
    14  C   -0.069185
    15  C    0.024464
    16  C    0.079495
    17  C   -0.020921
    18  C   -0.022628
    19  C    0.076906
    20  C    0.026576
    21  C   -0.068987
    22  C   -0.068632
    23  C    0.027553
    24  C    0.084801
    25  C   -0.028264
    26  N   -0.279382
    27  N   -0.278387
    28  N   -0.278514
    29  N   -0.278490
    30  C    0.035769
    31  C    0.044712
    32  C    0.040132
    33  C    0.038427
    34  C    0.042467
    35  C    0.060419
    36  C    0.038688
    37  C    0.040682
    38  C    0.006422
    39  C   -0.040119
    40  C    0.117221
    41  C    0.016547
    42  C    0.024683
    43  C    0.011618
    44  C   -0.036614
    45  C    0.120382
    46  C    0.012316
    47  C    0.020915
    48  C    0.036592
    49  C    0.057796
    50  C    0.126937
    51  C   -0.021897
    52  C    0.003761
    53  C   -0.025113
    54  C    0.130752
    55  C    0.108022
    56  C   -0.028806
    57  C   -0.005089
    58  C   -0.005155
    59  C   -0.029633
    60  C    0.107597
    61  C    0.130812
    62  C   -0.027849
    63  C    0.012391
    64  C   -0.039336
    65  C    0.117564
    66  C    0.015612
    67  C    0.018738
    68  C    0.020997
    69  C    0.012541
    70  C    0.119279
    71  C   -0.038397
    72  C    0.009638
    73  C   -0.003434
    74  C   -0.025327
    75  C    0.107607
    76  C    0.130465
    77  C   -0.027639
    90  O   -0.280234
    91  C    0.213474
    92  O   -0.282906
    93  C    0.211818
    94  O   -0.282878
    95  O   -0.280317
    96  C    0.213554
    97  C    0.211803
   126  O   -0.272278
   132  O   -0.271958
   134  O   -0.272175
   140  O   -0.297260
   142  O   -0.271371
   143  C    0.212981
   144  O   -0.286672
   145  C    0.218407
   146  O   -0.271417
   147  C    0.214388
   148  O   -0.270728
   149  C    0.211638
   162  C    0.217303
   163  C    0.216809
   164  C    0.194759
   165  C    0.216849
 Sum of Mulliken charges with hydrogens summed into heavy atoms =   0.00000
 Electronic spatial extent (au):  <R**2>=         129993.1123
 Charge=              0.0000 electrons
 Dipole moment (field-independent basis, Debye):
    X=              0.5310    Y=              0.6401    Z=              0.6967  Tot=              1.0849
 Quadrupole moment (field-independent basis, Debye-Ang):
   XX=           -501.7699   YY=           -551.9446   ZZ=           -541.4774
   XY=             -9.1568   XZ=             -7.2977   YZ=             10.7855
 Traceless Quadrupole moment (field-independent basis, Debye-Ang):
   XX=             29.9607   YY=            -20.2140   ZZ=             -9.7468
   XY=             -9.1568   XZ=             -7.2977   YZ=             10.7855
 Octapole moment (field-independent basis, Debye-Ang**2):
  XXX=            143.8581  YYY=            161.5567  ZZZ=            -14.1179  XYY=           -254.8509
  XXY=            -48.5616  XXZ=             41.5202  XZZ=            112.1244  YZZ=            101.0499
  YYZ=             73.2796  XYZ=             44.1619
 Hexadecapole moment (field-independent basis, Debye-Ang**3):
 XXXX=         -72118.5379 YYYY=         -67021.7123 ZZZZ=         -25355.8703 XXXY=          -2440.1223
 XXXZ=           -245.2158 YYYX=            691.8170 YYYZ=           1488.7608 ZZZX=           -479.7357
 ZZZY=             89.0125 XXYY=         -21431.0117 XXZZ=         -14353.6572 YYZZ=         -14723.6587
 XXYZ=             73.9547 YYXZ=           -795.5983 ZZXY=             28.6969
 N-N= 1.887937307971D+04 E-N=-4.801792279923D+04  KE= 4.378290193644D+03
 Leave Link  601 at Tue Feb  3 02:17:45 2015, MaxMem= 2147483648 cpu:      85.7
 (Enter /opt/g09/l9999.exe)
 1\1\GINC-CHPC-SCANDIUM\SP\RB3LYP\CC-pVDZ\C85H76N4O12\JARVIST\03-Feb-20
 15\0\\#p sp B3LYP/cc-pVDZ\\Auto Spiro; and yes I said yes I will Yes.\
 \0,1\C,0,-0.020812,-0.011012,0.254683\C,0,0.536287,-1.043583,1.24199\C
 ,0,0.308444,-0.63094,2.569972\C,0,-0.395979,0.652381,2.55117\C,0,-0.59
 5425,1.041096,1.211448\C,0,1.025849,0.551375,-0.714579\C,0,0.634624,0.
 327,-2.049034\C,0,-0.650907,-0.373411,-2.052427\C,0,-1.054175,-0.58828
 9,-0.720298\C,0,2.217392,1.189445,-0.409139\C,0,3.046144,1.639238,-1.4
 55454\C,0,2.648196,1.425371,-2.789783\C,0,1.45833,0.766233,-3.088647\C
 ,0,-0.859681,1.475044,3.580255\C,0,-1.503251,2.670385,3.26682\C,0,-1.7
 07915,3.056446,1.927914\C,0,-1.245486,2.221462,0.891504\C,0,1.194776,-
 2.228753,0.957699\C,0,1.635977,-3.043612,2.018777\C,0,1.401989,-2.6339
 75,3.345719\C,0,0.75061,-1.43437,3.623739\C,0,-1.465341,-0.820505,-3.0
 96141\C,0,-2.656704,-1.47918,-2.803654\C,0,-3.065123,-1.687241,-1.4710
 67\C,0,-2.246575,-1.227518,-0.420728\N,0,4.266837,2.304481,-1.171819\N
 ,0,-2.376189,4.269948,1.624613\N,0,2.311288,-4.263133,1.754156\N,0,-4.
 284736,-2.354753,-1.194529\C,0,-5.435623,-2.107208,-1.996289\C,0,1.857
 066,-5.123471,0.715738\C,0,-4.385156,-3.240399,-0.085935\C,0,3.428246,
 -4.645505,2.547045\C,0,4.348322,3.220355,-0.085585\C,0,5.427677,2.0326
 99,-1.946946\C,0,-3.48806,4.686955,2.407224\C,0,-1.901401,5.106485,0.5
 74988\C,0,-3.607959,6.011089,2.844651\C,0,-4.711986,6.429128,3.591879\
 C,0,-5.710483,5.511865,3.935453\C,0,-5.593037,4.180087,3.510799\C,0,-4
 .505386,3.777014,2.74956\C,0,5.441667,3.205067,0.787443\C,0,5.542831,4
 .12013,1.837751\C,0,4.52672,5.057902,2.04715\C,0,3.419277,5.070653,1.1
 86\C,0,3.336322,4.173768,0.129978\C,0,6.269095,3.080012,-2.36055\C,0,7
 .418386,2.832952,-3.101217\C,0,7.750769,1.510174,-3.471949\C,0,6.90092
 7,0.4716,-3.08451\C,0,5.759957,0.726115,-2.319467\C,0,-2.818886,5.6981
 21,-0.316406\C,0,-2.383474,6.531822,-1.34077\C,0,-0.99639,6.773117,-1.
 513674\C,0,-0.095714,6.173505,-0.637357\C,0,-0.540076,5.355128,0.40895
 2\C,0,0.497961,-5.366826,0.522623\C,0,0.073008,-6.209977,-0.511697\C,0
 ,0.989823,-6.840777,-1.348601\C,0,2.37383,-6.606252,-1.14708\C,0,2.790
 912,-5.74669,-0.136334\C,0,4.427741,-3.721046,2.873416\C,0,5.523414,-4
 .086627,3.658459\C,0,5.64925,-5.404234,4.111777\C,0,4.658957,-6.340104
 ,3.779715\C,0,3.560626,-5.964202,3.01896\C,0,-3.377508,-4.187936,0.173
 78\C,0,-3.48055,-5.05748,1.250706\C,0,-4.603939,-5.022554,2.090475\C,0
 ,-5.61627,-4.091367,1.837195\C,0,-5.495607,-3.204108,0.765044\C,0,-5.7
 94982,-0.81199,-2.36432\C,0,-6.924478,-0.593745,-3.162811\C,0,-7.72389
 7,-1.653913,-3.581476\C,0,-7.36835,-2.973184,-3.199533\C,0,-6.230676,-
 3.187544,-2.429038\H,0,-2.555753,-1.373023,0.609434\H,0,1.375125,-2.53
 4821,-0.068005\H,0,1.73538,-3.270209,4.159214\H,0,0.579049,-1.142558,4
 .656903\H,0,-0.711351,1.201819,4.622068\H,0,-1.852763,3.321196,4.06173
 5\H,0,-1.172834,-0.674585,-4.133046\H,0,-3.286463,-1.841567,-3.609502\
 H,0,1.173971,0.614517,-4.126964\H,0,3.284551,1.783639,-3.592452\H,0,-1
 .404279,2.508359,-0.143238\H,0,2.517867,1.342949,0.622497\O,0,-4.61356
 7,-5.931346,3.112661\C,0,-5.712568,-5.915625,4.007054\O,0,6.684004,-5.
 874643,4.874176\C,0,7.708021,-4.966292,5.239618\O,0,-6.827469,5.807676
 ,4.668989\O,0,4.517811,5.992977,3.045248\C,0,5.609109,6.01207,3.949012
 \C,0,-6.98815,7.137716,5.129883\H,0,-6.378179,3.479087,3.777152\H,0,-4
 .43247,2.746928,2.414948\H,0,6.230659,2.474245,0.640614\H,0,6.410036,4
 .079574,2.487024\H,0,-4.770263,7.464296,3.909138\H,0,-2.830952,6.72629
 3,2.593579\H,0,2.63889,5.806142,1.357498\H,0,2.477324,4.200032,-0.5333
 9\H,0,-6.28022,-2.47607,0.584452\H,0,-6.494179,-4.032543,2.470706\H,0,
 -2.703077,-5.787281,1.456445\H,0,-2.505517,-4.230377,-0.471661\H,0,6.2
 73157,-3.339679,3.893976\H,0,4.345241,-2.699694,2.514998\H,0,4.763016,
 -7.357406,4.144584\H,0,2.793097,-6.693811,2.780734\H,0,7.316001,-4.132
 915,5.838486\H,0,8.224635,-4.561312,4.358651\H,0,8.417574,-5.53845,5.8
 40601\H,0,6.558487,6.213055,3.434096\H,0,5.694363,5.066233,4.501077\H,
 0,5.402962,6.821407,4.652136\H,0,-7.928848,7.152798,5.683852\H,0,-7.04
 7762,7.851501,4.29681\H,0,-6.169699,7.436797,5.798785\H,0,-6.658943,-6
 .127904,3.490888\H,0,-5.797203,-4.952182,4.527695\H,0,-5.517166,-6.703
 267,4.737337\O,0,3.209914,-7.256524,-2.006075\H,0,3.844425,-5.545517,0
 .011313\H,0,-0.989303,-6.383374,-0.642228\H,0,-0.234287,-4.897364,1.17
 068\H,0,-5.195371,0.030059,-2.035632\H,0,-7.181142,0.422648,-3.43891\O
 ,0,-8.196345,-3.957573,-3.65218\H,0,-5.940118,-4.191608,-2.146534\O,0,
 -3.202454,7.149384,-2.239509\H,0,-3.874013,5.491891,-0.188156\H,0,0.96
 8078,6.352092,-0.746732\H,0,0.179226,4.908271,1.086898\H,0,5.125538,-0
 .098703,-2.012539\H,0,7.131806,-0.553504,-3.351742\O,0,8.235212,3.8945
 05,-3.411275\H,0,6.044277,4.107434,-2.09567\O,0,0.674374,-7.68806,-2.3
 71639\C,0,-0.696674,-7.94892,-2.610227\O,0,8.909238,1.351099,-4.184199
 \C,0,9.304776,0.032521,-4.521853\O,0,-0.66229,7.594328,-2.551456\C,0,0
 .712537,7.859168,-2.764849\O,0,-8.850094,-1.541878,-4.345074\C,0,-9.25
 0644,-0.242811,-4.740722\H,0,-0.727385,-8.631082,-3.462116\H,0,-1.2467
 24,-7.031184,-2.860185\H,0,-1.1758,-8.428139,-1.745217\H,0,-10.159642,
 -0.376797,-5.330394\H,0,-8.48629,0.247061,-5.359742\H,0,-9.471576,0.39
 5617,-3.874129\H,0,0.758434,8.518214,-3.634031\H,0,1.167582,8.365306,-
 1.902278\H,0,1.27481,6.939392,-2.976795\H,0,8.570309,-0.457618,-5.1753
 52\H,0,9.455512,-0.584167,-3.625812\H,0,10.252107,0.131277,-5.055307\C
 ,0,-7.896447,-5.294949,-3.292902\C,0,-4.598619,6.94287,-2.116129\C,0,8
 .324371,4.228892,-4.797519\C,0,4.605082,-7.073806,-1.840448\H,0,-5.058
 174,7.531031,-2.912868\H,0,-4.865015,5.88512,-2.246431\H,0,-4.975728,7
 .289076,-1.144319\H,0,-8.683527,-5.906497,-3.738226\H,0,-7.900901,-5.4
 32646,-2.203252\H,0,-6.922591,-5.612829,-3.689607\H,0,5.079179,-7.6937
 12,-2.603911\H,0,4.941442,-7.398944,-0.846763\H,0,4.897718,-6.025749,-
 1.991685\H,0,7.332935,4.46792,-5.205816\H,0,8.774649,3.418916,-5.37930
 5\H,0,8.959419,5.116354,-4.85259\\Version=EM64L-G09RevA.02\State=1-A\H
 F=-4406.6029351\RMSD=3.515e-09\Dipole=0.2089015,0.2518296,0.274102\Qua
 drupole=22.2750736,-15.0285938,-7.2464798,-6.8078502,-5.4256818,8.0187
 545\PG=C01 [X(C85H76N4O12)]\\@


 IT WAS A GAME, A VERY INTERESTING GAME ONE COULD
 PLAY.  WHENEVER ONE SOLVED ONE OF THE LITTLE PROBLEMS,
 ONE COULD WRITE A PAPER ABOUT IT.  IT WAS VERY EASY IN
 THOSE DAYS FOR ANY SECOND-RATE PHYSICIST TO DO
 FIRST-RATE WORK.  THERE HAS NOT BEEN SUCH A GLORIOUS
 TIME SINCE.  IT IS VERY DIFFICULT NOW FOR A FIRST-RATE
 PHYSICIST TO DO SECOND-RATE WORK.
     P.A.M. DIRAC, ON THE EARLY DAYS OF QUANTUM MECHANICS
                   DIRECTIONS IN PHYSICS, 1978, P. 7
 Job cpu time:  0 days 10 hours 32 minutes 25.4 seconds.
 File lengths (MBytes):  RWF=   1716 Int=      0 D2E=      0 Chk=    112 Scr=      1
 Normal termination of Gaussian 09 at Tue Feb  3 02:17:45 2015.
